      -----------------------------------------------------------      
     |                   =====================                   |     
     |                           x T B                           |     
     |                   =====================                   |     
     |                         S. Grimme                         |     
     |          Mulliken Center for Theoretical Chemistry        |     
     |                    University of Bonn                     |     
      -----------------------------------------------------------      

   * xtb version 6.4.1 (afa7bdf) compiled by 'ehlert@majestix' on 2021-06-10

   xtb is free software: you can redistribute it and/or modify it under
   the terms of the GNU Lesser General Public License as published by
   the Free Software Foundation, either version 3 of the License, or
   (at your option) any later version.
   
   xtb is distributed in the hope that it will be useful,
   but WITHOUT ANY WARRANTY; without even the implied warranty of
   MERCHANTABILITY or FITNESS FOR A PARTICULAR PURPOSE.  See the
   GNU Lesser General Public License for more details.
   
   Cite this work as:
   * C. Bannwarth, E. Caldeweyher, S. Ehlert, A. Hansen, P. Pracht,
     J. Seibert, S. Spicher, S. Grimme, WIREs Comput. Mol. Sci., 2020, 11,
     e01493. DOI: 10.1002/wcms.1493
   
   for GFN2-xTB:
   * C. Bannwarth, S. Ehlert and S. Grimme., J. Chem. Theory Comput., 2019,
     15, 1652-1671. DOI: 10.1021/acs.jctc.8b01176
   for GFN1-xTB:
   * S. Grimme, C. Bannwarth, P. Shushkov, J. Chem. Theory Comput., 2017,
     13, 1989-2009. DOI: 10.1021/acs.jctc.7b00118
   for GFN0-xTB:
   * P. Pracht, E. Caldeweyher, S. Ehlert, S. Grimme, ChemRxiv, 2019, preprint.
     DOI: 10.26434/chemrxiv.8326202.v1
   for GFN-FF:
   * S. Spicher and S. Grimme, Angew. Chem. Int. Ed., 2020, 59, 15665-15673.
     DOI: 10.1002/anie.202004239
   
   for DFT-D4:
   * E. Caldeweyher, C. Bannwarth and S. Grimme, J. Chem. Phys., 2017,
     147, 034112. DOI: 10.1063/1.4993215
   * E. Caldeweyher, S. Ehlert, A. Hansen, H. Neugebauer, S. Spicher,
     C. Bannwarth and S. Grimme, J. Chem. Phys., 2019, 150, 154122.
     DOI: 10.1063/1.5090222
   * E. Caldeweyher, J.-M. Mewes, S. Ehlert and S. Grimme, Phys. Chem. Chem. Phys.
     2020, 22, 8499-8512. DOI: 10.1039/D0CP00502A
   
   for sTDA-xTB:
   * S. Grimme and C. Bannwarth, J. Chem. Phys., 2016, 145, 054103.
     DOI: 10.1063/1.4959605
   
   in the mass-spec context:
   * V. Asgeirsson, C. Bauer and S. Grimme, Chem. Sci., 2017, 8, 4879.
     DOI: 10.1039/c7sc00601b
   * J. Koopman and S. Grimme, ACS Omega 2019, 4, 12, 15120-15133.
     DOI: 10.1021/acsomega.9b02011
   
   for metadynamics refer to:
   * S. Grimme, J. Chem. Theory Comput., 2019, 155, 2847-2862
     DOI: 10.1021/acs.jctc.9b00143
   
   for SPH calculations refer to:
   * S. Spicher and S. Grimme, J. Chem. Theory Comput., 2021, 17, 1701-1714
     DOI: 10.1021/acs.jctc.0c01306
   
   with help from (in alphabetical order)
   P. Atkinson, C. Bannwarth, F. Bohle, G. Brandenburg, E. Caldeweyher
   M. Checinski, S. Dohm, S. Ehlert, S. Ehrlich, I. Gerasimov, J. Koopman
   C. Lavigne, S. Lehtola, F. März, M. Müller, F. Musil, H. Neugebauer
   J. Pisarek, C. Plett, P. Pracht, J. Seibert, P. Shushkov, S. Spicher
   M. Stahn, M. Steiner, T. Strunk, J. Stückrath, T. Rose, and J. Unsleber
   
 * started run on 2023/10/02 at 00:23:10.135     

           -------------------------------------------------
          |                Calculation Setup                |
           -------------------------------------------------

          program call               : xtb rxn_174699_frozen.xyz --chrg 0 -P 16 --uhf 1
          hostname                   : dale
          coordinate file            : rxn_174699_frozen.xyz
          omp threads                :                    16
          number of atoms            :                    23
          number of electrons        :                    53
          charge                     :                     0
          spin                       :                   0.5
          first test random number   :      0.42996627723199

   ID    Z sym.   atoms
    1    6 C      1-10
    2    1 H      11-23

           -------------------------------------------------
          |                 G F N 2 - x T B                 |
           -------------------------------------------------

        Reference                      10.1021/acs.jctc.8b01176
      * Hamiltonian:
        H0-scaling (s, p, d)           1.850000    2.230000    2.230000
        zeta-weighting                 0.500000
      * Dispersion:
        s8                             2.700000
        a1                             0.520000
        a2                             5.000000
        s9                             5.000000
      * Repulsion:
        kExp                           1.500000    1.000000
        rExp                           1.000000
      * Coulomb:
        alpha                          2.000000
        third order                    shell-resolved
        anisotropic                    true
        a3                             3.000000
        a5                             4.000000
        cn-shift                       1.200000
        cn-exp                         4.000000
        max-rad                        5.000000


          ...................................................
          :                      SETUP                      :
          :.................................................:
          :  # basis functions                  53          :
          :  # atomic orbitals                  53          :
          :  # shells                           33          :
          :  # electrons                        53          :
          :  max. iterations                   250          :
          :  Hamiltonian                  GFN2-xTB          :
          :  restarted?                      false          :
          :  GBSA solvation                  false          :
          :  PC potential                    false          :
          :  electronic temp.          300.0000000     K    :
          :  accuracy                    1.0000000          :
          :  -> integral cutoff          0.2500000E+02      :
          :  -> integral neglect         0.1000000E-07      :
          :  -> SCF convergence          0.1000000E-05 Eh   :
          :  -> wf. convergence          0.1000000E-03 e    :
          :  Broyden damping             0.4000000          :
          ...................................................

 iter      E             dE          RMSdq      gap      omega  full diag
   1    -28.2821899 -0.282822E+02  0.338E+00    3.63       0.0  T
   2    -28.3070308 -0.248409E-01  0.210E+00    3.14       1.0  T
   3    -28.2733111  0.337197E-01  0.136E+00    3.77       1.0  T
   4    -28.3109291 -0.376180E-01  0.524E-01    3.29       1.0  T
   5    -28.3151482 -0.421909E-02  0.185E-01    3.46       1.0  T
   6    -28.3157098 -0.561696E-03  0.537E-02    3.44       1.0  T
   7    -28.3157269 -0.170390E-04  0.289E-02    3.44       1.0  T
   8    -28.3157287 -0.177280E-05  0.730E-03    3.44       2.9  T
   9    -28.3157295 -0.850641E-06  0.247E-03    3.44       8.5  T
  10    -28.3157296 -0.534781E-07  0.714E-04    3.44      29.2  T
  11    -28.3157296 -0.109040E-08  0.245E-04    3.44      85.0  T

   *** convergence criteria satisfied after 11 iterations ***

         #    Occupation            Energy/Eh            Energy/eV
      -------------------------------------------------------------
         1        2.0000           -0.6502732             -17.6948
       ...           ...                  ...                  ...
        21        2.0000           -0.4330960             -11.7851
        22        2.0000           -0.4165196             -11.3341
        23        2.0000           -0.4119912             -11.2109
        24        2.0000           -0.4007913             -10.9061
        25        2.0000           -0.3969464             -10.8015
        26        2.0000           -0.3915321             -10.6541
        27        1.0000           -0.3235247              -8.8036 (HOMO)
        28                         -0.1969395              -5.3590 (LUMO)
        29                         -0.1881791              -5.1206
        30                         -0.0502776              -1.3681
        31                         -0.0376528              -1.0246
        32                          0.0793500               2.1592
       ...                                ...                  ...
        53                          0.8017329              21.8163
      -------------------------------------------------------------
                  HL-Gap            0.1265852 Eh            3.4446 eV
             Fermi-level           -0.3088803 Eh           -8.4051 eV

 SCC (total)                   0 d,  0 h,  0 min,  0.013 sec
 SCC setup                      ...        0 min,  0.000 sec (  1.908%)
 Dispersion                     ...        0 min,  0.000 sec (  2.365%)
 classical contributions        ...        0 min,  0.000 sec (  0.221%)
 integral evaluation            ...        0 min,  0.001 sec (  5.921%)
 iterations                     ...        0 min,  0.011 sec ( 80.350%)
 molecular gradient             ...        0 min,  0.001 sec (  8.196%)
 printout                       ...        0 min,  0.000 sec (  0.783%)

         :::::::::::::::::::::::::::::::::::::::::::::::::::::
         ::                     SUMMARY                     ::
         :::::::::::::::::::::::::::::::::::::::::::::::::::::
         :: total energy             -27.820522928354 Eh    ::
         :: gradient norm              0.084469788553 Eh/a0 ::
         :: HOMO-LUMO gap              3.444558752317 eV    ::
         ::.................................................::
         :: SCC energy               -28.315729564859 Eh    ::
         :: -> isotropic ES            0.004425794866 Eh    ::
         :: -> anisotropic ES          0.004911046536 Eh    ::
         :: -> anisotropic XC          0.019402857724 Eh    ::
         :: -> dispersion             -0.016798142749 Eh    ::
         :: repulsion energy           0.495177191858 Eh    ::
         :: add. restraining           0.000000000000 Eh    ::
         :: total charge               0.000000000000 e     ::
         :::::::::::::::::::::::::::::::::::::::::::::::::::::

           -------------------------------------------------
          |                Property Printout                |
           -------------------------------------------------

    * Orbital Energies and Occupations

         #    Occupation            Energy/Eh            Energy/eV
      -------------------------------------------------------------
         1        2.0000           -0.6502732             -17.6948
       ...           ...                  ...                  ...
        15        2.0000           -0.4892416             -13.3129
        16        2.0000           -0.4796713             -13.0525
        17        2.0000           -0.4769384             -12.9782
        18        2.0000           -0.4648546             -12.6493
        19        2.0000           -0.4518131             -12.2945
        20        2.0000           -0.4411440             -12.0041
        21        2.0000           -0.4330960             -11.7851
        22        2.0000           -0.4165196             -11.3341
        23        2.0000           -0.4119912             -11.2109
        24        2.0000           -0.4007913             -10.9061
        25        2.0000           -0.3969464             -10.8015
        26        2.0000           -0.3915321             -10.6541
        27        1.0000           -0.3235247              -8.8036 (HOMO)
        28                         -0.1969395              -5.3590 (LUMO)
        29                         -0.1881791              -5.1206
        30                         -0.0502776              -1.3681
        31                         -0.0376528              -1.0246
        32                          0.0793500               2.1592
        33                          0.0820890               2.2338
        34                          0.1019371               2.7738
        35                          0.1229561               3.3458
        36                          0.1323095               3.6003
        37                          0.1482739               4.0347
        38                          0.1580543               4.3009
       ...                                ...                  ...
        53                          0.8017329              21.8163
      -------------------------------------------------------------
                  HL-Gap            0.1265852 Eh            3.4446 eV
             Fermi-level           -0.3088803 Eh           -8.4051 eV

     #   Z          covCN         q      C6AA      α(0)
     1   6 C        1.907    -0.138    35.014     9.556
     2   6 C        2.939     0.010    27.785     8.645
     3   6 C        3.806    -0.056    21.570     6.612
     4   6 C        3.858    -0.015    20.804     6.487
     5   6 C        3.803    -0.055    21.560     6.611
     6   6 C        3.803    -0.054    21.536     6.607
     7   6 C        3.858    -0.026    21.002     6.518
     8   6 C        3.806    -0.073    21.898     6.662
     9   6 C        2.939     0.011    27.771     8.643
    10   6 C        2.833    -0.104    30.619     9.068
    11   1 H        0.926     0.054     2.269     2.355
    12   1 H        0.925     0.038     2.478     2.462
    13   1 H        0.925     0.046     2.369     2.407
    14   1 H        0.925     0.035     2.522     2.484
    15   1 H        0.924     0.040     2.447     2.446
    16   1 H        0.924     0.037     2.494     2.470
    17   1 H        0.924     0.035     2.511     2.478
    18   1 H        0.924     0.033     2.550     2.497
    19   1 H        0.925     0.035     2.518     2.482
    20   1 H        0.925     0.037     2.485     2.465
    21   1 H        0.925     0.032     2.552     2.498
    22   1 H        0.926     0.039     2.457     2.451
    23   1 H        0.926     0.039     2.464     2.455

 Mol. C6AA /au·bohr⁶  :       4909.395664
 Mol. C8AA /au·bohr⁸  :     114265.348045
 Mol. α(0) /au        :        107.357254


Wiberg/Mayer (AO) data.
largest (>0.10) Wiberg bond orders for each atom

 ---------------------------------------------------------------------------
     #   Z sym  total        # sym  WBO       # sym  WBO       # sym  WBO
 ---------------------------------------------------------------------------
     1   6 C    3.152 --     2 C    2.100    11 H    0.938
     2   6 C    3.913 --     1 C    2.100     4 C    0.924     3 C    0.865
     3   6 C    3.800 --    12 H    0.967    13 H    0.964     4 C    0.964
                             2 C    0.865
     4   6 C    3.896 --     5 C    0.997     3 C    0.964    14 H    0.958
                             2 C    0.924
     5   6 C    3.993 --     4 C    0.997     6 C    0.994    15 H    0.976
                            16 H    0.971
     6   6 C    3.993 --     7 C    0.997     5 C    0.994    17 H    0.975
                            18 H    0.973
     7   6 C    3.943 --     6 C    0.997     9 C    0.981    19 H    0.959
                             8 C    0.947
     8   6 C    3.939 --     9 C    0.989    21 H    0.969    20 H    0.966
                             7 C    0.947
     9   6 C    3.954 --    10 C    1.956     8 C    0.989     7 C    0.981
    10   6 C    3.987 --     9 C    1.956    23 H    0.967    22 H    0.967
    11   1 H    0.960 --     1 C    0.938
    12   1 H    0.995 --     3 C    0.967
    13   1 H    0.995 --     3 C    0.964
    14   1 H    0.996 --     4 C    0.958
    15   1 H    0.998 --     5 C    0.976
    16   1 H    0.998 --     5 C    0.971
    17   1 H    0.997 --     6 C    0.975
    18   1 H    0.999 --     6 C    0.973
    19   1 H    0.999 --     7 C    0.959
    20   1 H    0.999 --     8 C    0.966
    21   1 H    0.999 --     8 C    0.969
    22   1 H    0.998 --    10 C    0.967
    23   1 H    0.998 --    10 C    0.967
 ---------------------------------------------------------------------------

Topologies differ in total number of bonds
Writing topology from bond orders to xtbtopo.mol

molecular dipole:
                 x           y           z       tot (Debye)
 q only:       -0.310       0.114       0.031
   full:       -0.431       0.244      -0.111       1.289
molecular quadrupole (traceless):
                xx          xy          yy          xz          yz          zz
 q only:       -4.678       2.058       1.689       0.376      -0.332       2.989
  q+dip:       -6.760       3.605       2.198      -0.911       0.543       4.562
   full:       -7.450       4.217       2.697      -0.278      -0.213       4.753


           -------------------------------------------------
          | TOTAL ENERGY              -27.820522928354 Eh   |
          | GRADIENT NORM               0.084469788553 Eh/α |
          | HOMO-LUMO GAP               3.444558752317 eV   |
           -------------------------------------------------

------------------------------------------------------------------------
 * finished run on 2023/10/02 at 00:23:10.205     
------------------------------------------------------------------------
 total:
 * wall-time:     0 d,  0 h,  0 min,  0.070 sec
 *  cpu-time:     0 d,  0 h,  0 min,  0.872 sec
 * ratio c/w:    12.409 speedup
 SCF:
 * wall-time:     0 d,  0 h,  0 min,  0.013 sec
 *  cpu-time:     0 d,  0 h,  0 min,  0.210 sec
 * ratio c/w:    15.799 speedup

