 Entering Gaussian System, Link 0=/gpfslocalsup/prod/g16/rev-C01/g16/g16
 Input=p1_C4H8N2O_hess_g16.com
 Output=p1_C4H8N2O_hess_g16.log
 Initial command:
 /gpfslocalsup/prod/g16/rev-C01/g16/l1.exe "/gpfsssd/jobscratch/uzg38mn_1841822/Gau-1793833.inp" -scrdir="/gpfsssd/jobscratch/uzg38mn_1841822/"
 Entering Link 1 = /gpfslocalsup/prod/g16/rev-C01/g16/l1.exe PID=   1793834.
  
 Copyright (c) 1988-2019, Gaussian, Inc.  All Rights Reserved.
  
 This is part of the Gaussian(R) 16 program.  It is based on
 the Gaussian(R) 09 system (copyright 2009, Gaussian, Inc.),
 the Gaussian(R) 03 system (copyright 2003, Gaussian, Inc.),
 the Gaussian(R) 98 system (copyright 1998, Gaussian, Inc.),
 the Gaussian(R) 94 system (copyright 1995, Gaussian, Inc.),
 the Gaussian 92(TM) system (copyright 1992, Gaussian, Inc.),
 the Gaussian 90(TM) system (copyright 1990, Gaussian, Inc.),
 the Gaussian 88(TM) system (copyright 1988, Gaussian, Inc.),
 the Gaussian 86(TM) system (copyright 1986, Carnegie Mellon
 University), and the Gaussian 82(TM) system (copyright 1983,
 Carnegie Mellon University). Gaussian is a federally registered
 trademark of Gaussian, Inc.
  
 This software contains proprietary and confidential information,
 including trade secrets, belonging to Gaussian, Inc.
  
 This software is provided under written license and may be
 used, copied, transmitted, or stored only in accord with that
 written license.
  
 The following legend is applicable only to US Government
 contracts under FAR:
  
                    RESTRICTED RIGHTS LEGEND
  
 Use, reproduction and disclosure by the US Government is
 subject to restrictions as set forth in subparagraphs (a)
 and (c) of the Commercial Computer Software - Restricted
 Rights clause in FAR 52.227-19.
  
 Gaussian, Inc.
 340 Quinnipiac St., Bldg. 40, Wallingford CT 06492
  
  
 ---------------------------------------------------------------
 Warning -- This program may not be used in any manner that
 competes with the business of Gaussian, Inc. or will provide
 assistance to any competitor of Gaussian, Inc.  The licensee
 of this program is prohibited from giving any competitor of
 Gaussian, Inc. access to this program.  By using this program,
 the user acknowledges that Gaussian, Inc. is engaged in the
 business of creating and licensing software in the field of
 computational chemistry and represents and warrants to the
 licensee that it is not a competitor of Gaussian, Inc. and that
 it will not use this program in any manner prohibited above.
 ---------------------------------------------------------------
  

 Cite this work as:
 Gaussian 16, Revision C.01,
 M. J. Frisch, G. W. Trucks, H. B. Schlegel, G. E. Scuseria, 
 M. A. Robb, J. R. Cheeseman, G. Scalmani, V. Barone, 
 G. A. Petersson, H. Nakatsuji, X. Li, M. Caricato, A. V. Marenich, 
 J. Bloino, B. G. Janesko, R. Gomperts, B. Mennucci, H. P. Hratchian, 
 J. V. Ortiz, A. F. Izmaylov, J. L. Sonnenberg, D. Williams-Young, 
 F. Ding, F. Lipparini, F. Egidi, J. Goings, B. Peng, A. Petrone, 
 T. Henderson, D. Ranasinghe, V. G. Zakrzewski, J. Gao, N. Rega, 
 G. Zheng, W. Liang, M. Hada, M. Ehara, K. Toyota, R. Fukuda, 
 J. Hasegawa, M. Ishida, T. Nakajima, Y. Honda, O. Kitao, H. Nakai, 
 T. Vreven, K. Throssell, J. A. Montgomery, Jr., J. E. Peralta, 
 F. Ogliaro, M. J. Bearpark, J. J. Heyd, E. N. Brothers, K. N. Kudin, 
 V. N. Staroverov, T. A. Keith, R. Kobayashi, J. Normand, 
 K. Raghavachari, A. P. Rendell, J. C. Burant, S. S. Iyengar, 
 J. Tomasi, M. Cossi, J. M. Millam, M. Klene, C. Adamo, R. Cammi, 
 J. W. Ochterski, R. L. Martin, K. Morokuma, O. Farkas, 
 J. B. Foresman, and D. J. Fox, Gaussian, Inc., Wallingford CT, 2019.
 
 ******************************************
 Gaussian 16:  ES64L-G16RevC.01  3-Jul-2019
                11-Sep-2023 
 ******************************************
 %mem=96000MB
 %nprocshared=24
 Will use up to   24 processors via shared memory.
 ---------------------
 # um062x Def2SVP Freq
 ---------------------
 1/10=4,30=1,38=1/1,3;
 2/12=2,17=6,18=5,40=1/2;
 3/5=43,7=101,11=2,25=1,30=1,71=2,74=-55,116=2,140=1/1,2,3;
 4//1;
 5/5=2,38=5,98=1/2;
 8/6=4,10=90,11=11/1;
 11/6=1,8=1,9=11,15=111,16=1/1,2,10;
 10/6=1/2;
 6/7=2,8=2,9=2,10=2,28=1/1;
 7/8=1,10=1,25=1/1,2,3,16;
 1/10=4,30=1/3;
 99//99;
 -------------------
 p1_C4H8N2O_hess_g16
 -------------------
 Symbolic Z-matrix:
 Charge =  0 Multiplicity = 1
 C                    -0.98138   0.81002   1.05719 
 C                    -0.6584    0.21165  -0.30504 
 C                    -0.91371  -1.26629  -0.45391 
 N                    -0.02317  -1.87659  -1.12613 
 O                     0.95267  -0.98312  -1.50394 
 C                     0.82089   0.23239  -0.72923 
 N                     1.71686   0.28204   0.37862 
 H                    -2.06005   0.74262   1.25641 
 H                    -0.4502    0.28823   1.86373 
 H                    -0.68718   1.86685   1.09613 
 H                    -1.25322   0.72798  -1.07818 
 H                    -1.77825  -1.81719  -0.07966 
 H                     1.05621   1.05332  -1.41802 
 H                     1.5788   -0.52254   0.98958 
 H                     2.68012   0.25064   0.05235 
 

 GradGradGradGradGradGradGradGradGradGradGradGradGradGradGradGradGradGrad
 Berny optimization.
 Initialization pass.
 Trust Radius=3.00D-01 FncErr=1.00D-07 GrdErr=1.00D-07 EigMax=2.50D+02 EigMin=1.00D-04
 Number of steps in this run=      2 maximum allowed number of steps=      2.
 GradGradGradGradGradGradGradGradGradGradGradGradGradGradGradGradGradGrad

                          Input orientation:                          
 ---------------------------------------------------------------------
 Center     Atomic      Atomic             Coordinates (Angstroms)
 Number     Number       Type             X           Y           Z
 ---------------------------------------------------------------------
      1          6           0       -0.981380    0.810023    1.057188
      2          6           0       -0.658399    0.211650   -0.305040
      3          6           0       -0.913710   -1.266289   -0.453907
      4          7           0       -0.023169   -1.876588   -1.126129
      5          8           0        0.952671   -0.983116   -1.503942
      6          6           0        0.820893    0.232386   -0.729226
      7          7           0        1.716861    0.282038    0.378619
      8          1           0       -2.060047    0.742619    1.256406
      9          1           0       -0.450200    0.288226    1.863725
     10          1           0       -0.687181    1.866849    1.096131
     11          1           0       -1.253221    0.727977   -1.078178
     12          1           0       -1.778246   -1.817191   -0.079658
     13          1           0        1.056208    1.053319   -1.418017
     14          1           0        1.578798   -0.522541    0.989584
     15          1           0        2.680122    0.250637    0.052347
 ---------------------------------------------------------------------
                    Distance matrix (angstroms):
                    1          2          3          4          5
     1  C    0.000000
     2  C    1.522508   0.000000
     3  C    2.568863   1.507199   0.000000
     4  N    3.592063   2.332047   1.271775   0.000000
     5  O    3.676314   2.336745   2.160125   1.375972   0.000000
     6  C    2.602523   1.539048   2.308825   2.306023   1.447410
     7  N    2.831913   2.472692   3.163909   3.154622   2.393457
     8  H    1.098978   2.164407   2.876625   4.084800   4.435555
     9  H    1.097691   2.180081   2.828918   3.715912   3.863358
    10  H    1.097703   2.168823   3.502925   4.403711   4.191872
    11  H    2.154163   1.103698   2.117092   2.880813   2.824017
    12  H    2.971476   2.328315   1.091319   2.044242   3.190952
    13  H    3.215213   2.210656   3.192282   3.136018   2.040875
    14  H    2.887007   2.687031   2.974798   2.979259   2.611865
    15  H    3.837866   3.357822   3.933572   3.636162   2.632160
                    6          7          8          9         10
     6  C    0.000000
     7  N    1.425673   0.000000
     8  H    3.535942   3.904828   0.000000
     9  H    2.888285   2.627115   1.779583   0.000000
    10  H    2.877097   2.967468   1.781668   1.771274   0.000000
    11  H    2.160863   3.338039   2.470114   3.081074   2.518938
    12  H    3.373163   4.102749   2.901225   3.158041   4.018091
    13  H    1.097150   2.063792   4.118266   3.691133   3.165782
    14  H    2.024510   1.019650   3.861738   2.353359   3.294723
    15  H    2.016909   1.017502   4.915385   3.616824   3.878190
                   11         12         13         14         15
    11  H    0.000000
    12  H    2.783985   0.000000
    13  H    2.356862   4.250313   0.000000
    14  H    3.722871   3.753551   2.924547   0.000000
    15  H    4.120331   4.916338   2.333102   1.639857   0.000000
 Stoichiometry    C4H8N2O
 Framework group  C1[X(C4H8N2O)]
 Deg. of freedom    39
 Full point group                 C1      NOp   1
 Largest Abelian subgroup         C1      NOp   1
 Largest concise Abelian subgroup C1      NOp   1
                         Standard orientation:                         
 ---------------------------------------------------------------------
 Center     Atomic      Atomic             Coordinates (Angstroms)
 Number     Number       Type             X           Y           Z
 ---------------------------------------------------------------------
      1          6           0        2.078860   -0.301586   -0.078195
      2          6           0        0.676871   -0.474881    0.489632
      3          6           0       -0.237873   -1.392999   -0.279751
      4          7           0       -1.437990   -0.978752   -0.354121
      5          8           0       -1.539829    0.235554    0.284931
      6          6           0       -0.216173    0.778483    0.504385
      7          7           0        0.157552    1.739712   -0.479949
      8          1           0        2.625384   -1.254270   -0.039999
      9          1           0        2.052829    0.037483   -1.121881
     10          1           0        2.641406    0.443985    0.498534
     11          1           0        0.748349   -0.867903    1.518503
     12          1           0        0.028965   -2.353801   -0.723185
     13          1           0       -0.251709    1.266029    1.486613
     14          1           0        0.111154    1.334618   -1.414525
     15          1           0       -0.484796    2.528608   -0.461444
 ---------------------------------------------------------------------
 Rotational constants (GHZ):           3.8695994           3.0282677           1.9944366
 Standard basis: def2SVP (5D, 7F)
 There are   145 symmetry adapted cartesian basis functions of A   symmetry.
 There are   138 symmetry adapted basis functions of A   symmetry.
   138 basis functions,   231 primitive gaussians,   145 cartesian basis functions
    27 alpha electrons       27 beta electrons
       nuclear repulsion energy       320.5795463756 Hartrees.
 NAtoms=   15 NActive=   15 NUniq=   15 SFac= 1.00D+00 NAtFMM=   60 NAOKFM=F Big=F
 Integral buffers will be    131072 words long.
 Raffenetti 2 integral format.
 Two-electron integral symmetry is turned on.
 One-electron integrals computed using PRISM.
   1 Symmetry operations used in ECPInt.
 ECPInt:  NShTT=    2211 NPrTT=    7865 LenC2=    2206 LenP2D=    6592.
 LDataN:  DoStor=T MaxTD1= 4 Len=   56
 NBasis=   138 RedAO= T EigKep=  1.13D-03  NBF=   138
 NBsUse=   138 1.00D-06 EigRej= -1.00D+00 NBFU=   138
 ExpMin= 1.22D-01 ExpMax= 2.27D+03 ExpMxC= 3.41D+02 IAcc=3 IRadAn=         5 AccDes= 0.00D+00
 Harris functional with IExCor= 1009 and IRadAn=       5 diagonalized for initial guess.
 HarFok:  IExCor= 1009 AccDes= 0.00D+00 IRadAn=         5 IDoV= 1 UseB2=F ITyADJ=14
 ICtDFT=  3500011 ScaDFX=  1.000000  1.000000  1.000000  1.000000
 FoFCou: FMM=F IPFlag=           0 FMFlag=      100000 FMFlg1=           0
         NFxFlg=           0 DoJE=T BraDBF=F KetDBF=T FulRan=T
         wScrn=  0.000000 ICntrl=       500 IOpCl=  0 I1Cent=   200000004 NGrid=           0
         NMat0=    1 NMatS0=      1 NMatT0=    0 NMatD0=    1 NMtDS0=    0 NMtDT0=    0
 Petite list used in FoFCou.
 Initial guess <Sx>= 0.0000 <Sy>= 0.0000 <Sz>= 0.0000 <S**2>=-0.0000 S=-0.0000
 Requested convergence on RMS density matrix=1.00D-08 within 128 cycles.
 Requested convergence on MAX density matrix=1.00D-06.
 Requested convergence on             energy=1.00D-06.
 No special actions if energy rises.
 Integral accuracy reduced to 1.0D-05 until final iterations.
 Initial convergence to 1.0D-05 achieved.  Increase integral accuracy.
 SCF Done:  E(UM062X) =  -341.495943026     A.U. after   15 cycles
            NFock= 15  Conv=0.38D-08     -V/T= 2.0091
 <Sx>= 0.0000 <Sy>= 0.0000 <Sz>= 0.0000 <S**2>=-0.0000 S=-0.0000
 <L.S>=  0.00000000000    
 Annihilation of the first spin contaminant:
 S**2 before annihilation    -0.0000,   after     0.0000
 DoSCS=F DFT=T ScalE2(SS,OS)=  1.000000  1.000000
 Range of M.O.s used for correlation:     1   138
 NBasis=   138 NAE=    27 NBE=    27 NFC=     0 NFV=     0
 NROrb=    138 NOA=    27 NOB=    27 NVA=   111 NVB=   111
   1 Symmetry operations used in ECPInt.
 ECPInt:  NShTT=    2211 NPrTT=    7865 LenC2=    2206 LenP2D=    6592.
 LDataN:  DoStor=T MaxTD1= 5 Len=  102
 Symmetrizing basis deriv contribution to polar:
 IMax=3 JMax=2 DiffMx= 0.00D+00
 G2DrvN: will do    16 centers at a time, making    1 passes.
 Calling FoFCou, ICntrl=  3107 FMM=F I1Cent=   0 AccDes= 0.00D+00.
 End of G2Drv F.D. properties file   721 does not exist.
 End of G2Drv F.D. properties file   722 does not exist.
 End of G2Drv F.D. properties file   788 does not exist.
          IDoAtm=111111111111111
          Differentiating once with respect to electric field.
                with respect to dipole field.
          Differentiating once with respect to nuclear coordinates.
 Keep R1 and R2 ints in memory in canonical form, NReq=115287021.
          There are    48 degrees of freedom in the 1st order CPHF.  IDoFFX=6 NUNeed=     3.
     45 vectors produced by pass  0 Test12= 1.25D-14 2.08D-09 XBig12= 5.92D+01 2.51D+00.
 AX will form    45 AO Fock derivatives at one time.
     45 vectors produced by pass  1 Test12= 1.25D-14 2.08D-09 XBig12= 1.41D+01 5.86D-01.
     45 vectors produced by pass  2 Test12= 1.25D-14 2.08D-09 XBig12= 2.26D-01 4.50D-02.
     45 vectors produced by pass  3 Test12= 1.25D-14 2.08D-09 XBig12= 1.09D-03 3.71D-03.
     45 vectors produced by pass  4 Test12= 1.25D-14 2.08D-09 XBig12= 4.92D-06 1.82D-04.
     45 vectors produced by pass  5 Test12= 1.25D-14 2.08D-09 XBig12= 1.57D-08 1.01D-05.
     24 vectors produced by pass  6 Test12= 1.25D-14 2.08D-09 XBig12= 4.37D-11 5.51D-07.
      3 vectors produced by pass  7 Test12= 1.25D-14 2.08D-09 XBig12= 1.03D-13 2.46D-08.
 InvSVY:  IOpt=1 It=  1 EMax= 1.78D-15
 Solved reduced A of dimension   297 with    48 vectors.
 Isotropic polarizability for W=    0.000000       54.79 Bohr**3.
 End of Minotr F.D. properties file   721 does not exist.
 End of Minotr F.D. properties file   722 does not exist.
 End of Minotr F.D. properties file   788 does not exist.

 **********************************************************************

            Population analysis using the SCF Density.

 **********************************************************************

 Orbital symmetries:
 Alpha Orbitals:
       Occupied  (A) (A) (A) (A) (A) (A) (A) (A) (A) (A) (A) (A)
                 (A) (A) (A) (A) (A) (A) (A) (A) (A) (A) (A) (A)
                 (A) (A) (A)
       Virtual   (A) (A) (A) (A) (A) (A) (A) (A) (A) (A) (A) (A)
                 (A) (A) (A) (A) (A) (A) (A) (A) (A) (A) (A) (A)
                 (A) (A) (A) (A) (A) (A) (A) (A) (A) (A) (A) (A)
                 (A) (A) (A) (A) (A) (A) (A) (A) (A) (A) (A) (A)
                 (A) (A) (A) (A) (A) (A) (A) (A) (A) (A) (A) (A)
                 (A) (A) (A) (A) (A) (A) (A) (A) (A) (A) (A) (A)
                 (A) (A) (A) (A) (A) (A) (A) (A) (A) (A) (A) (A)
                 (A) (A) (A) (A) (A) (A) (A) (A) (A) (A) (A) (A)
                 (A) (A) (A) (A) (A) (A) (A) (A) (A) (A) (A) (A)
                 (A) (A) (A)
 Beta  Orbitals:
       Occupied  (A) (A) (A) (A) (A) (A) (A) (A) (A) (A) (A) (A)
                 (A) (A) (A) (A) (A) (A) (A) (A) (A) (A) (A) (A)
                 (A) (A) (A)
       Virtual   (A) (A) (A) (A) (A) (A) (A) (A) (A) (A) (A) (A)
                 (A) (A) (A) (A) (A) (A) (A) (A) (A) (A) (A) (A)
                 (A) (A) (A) (A) (A) (A) (A) (A) (A) (A) (A) (A)
                 (A) (A) (A) (A) (A) (A) (A) (A) (A) (A) (A) (A)
                 (A) (A) (A) (A) (A) (A) (A) (A) (A) (A) (A) (A)
                 (A) (A) (A) (A) (A) (A) (A) (A) (A) (A) (A) (A)
                 (A) (A) (A) (A) (A) (A) (A) (A) (A) (A) (A) (A)
                 (A) (A) (A) (A) (A) (A) (A) (A) (A) (A) (A) (A)
                 (A) (A) (A) (A) (A) (A) (A) (A) (A) (A) (A) (A)
                 (A) (A) (A)
 The electronic state is 1-A.
 Alpha  occ. eigenvalues --  -19.66078 -14.80745 -14.75145 -10.63363 -10.58669
 Alpha  occ. eigenvalues --  -10.57580 -10.55930  -1.21608  -1.00127  -0.94696
 Alpha  occ. eigenvalues --   -0.87635  -0.77570  -0.67922  -0.66524  -0.61261
 Alpha  occ. eigenvalues --   -0.57975  -0.54349  -0.52269  -0.49089  -0.47531
 Alpha  occ. eigenvalues --   -0.46586  -0.43723  -0.42286  -0.40470  -0.37205
 Alpha  occ. eigenvalues --   -0.32668  -0.30896
 Alpha virt. eigenvalues --    0.03820   0.09071   0.11066   0.12497   0.13997
 Alpha virt. eigenvalues --    0.15655   0.16485   0.17932   0.20052   0.20567
 Alpha virt. eigenvalues --    0.22344   0.24514   0.28095   0.33843   0.34467
 Alpha virt. eigenvalues --    0.38553   0.42816   0.48491   0.49548   0.53076
 Alpha virt. eigenvalues --    0.55270   0.58229   0.60043   0.62511   0.64886
 Alpha virt. eigenvalues --    0.65906   0.67485   0.68274   0.69940   0.70958
 Alpha virt. eigenvalues --    0.72123   0.72317   0.72621   0.73893   0.75998
 Alpha virt. eigenvalues --    0.77780   0.80083   0.83027   0.84420   0.89366
 Alpha virt. eigenvalues --    0.90356   0.92649   0.98777   0.99750   1.05260
 Alpha virt. eigenvalues --    1.07858   1.10884   1.17161   1.21757   1.26225
 Alpha virt. eigenvalues --    1.27607   1.33285   1.37934   1.41845   1.47414
 Alpha virt. eigenvalues --    1.50766   1.53707   1.58217   1.64582   1.65633
 Alpha virt. eigenvalues --    1.72662   1.73836   1.76627   1.77906   1.78639
 Alpha virt. eigenvalues --    1.81111   1.82249   1.85584   1.87274   1.88867
 Alpha virt. eigenvalues --    1.90655   1.93356   1.95520   1.99245   2.00279
 Alpha virt. eigenvalues --    2.03872   2.05906   2.08397   2.11907   2.13829
 Alpha virt. eigenvalues --    2.14921   2.17310   2.24363   2.27460   2.35631
 Alpha virt. eigenvalues --    2.36611   2.41137   2.44403   2.49177   2.52988
 Alpha virt. eigenvalues --    2.57537   2.62990   2.69268   2.73176   2.74095
 Alpha virt. eigenvalues --    2.81583   2.82574   2.84541   2.88172   2.95423
 Alpha virt. eigenvalues --    2.97134   3.02925   3.05098   3.07540   3.10194
 Alpha virt. eigenvalues --    3.14409   3.23370   3.25118   3.41064   3.45146
 Alpha virt. eigenvalues --    3.71048
  Beta  occ. eigenvalues --  -19.66078 -14.80745 -14.75145 -10.63363 -10.58669
  Beta  occ. eigenvalues --  -10.57580 -10.55930  -1.21608  -1.00127  -0.94696
  Beta  occ. eigenvalues --   -0.87635  -0.77570  -0.67922  -0.66524  -0.61261
  Beta  occ. eigenvalues --   -0.57975  -0.54349  -0.52269  -0.49089  -0.47531
  Beta  occ. eigenvalues --   -0.46586  -0.43723  -0.42286  -0.40470  -0.37205
  Beta  occ. eigenvalues --   -0.32668  -0.30896
  Beta virt. eigenvalues --    0.03820   0.09071   0.11066   0.12497   0.13997
  Beta virt. eigenvalues --    0.15655   0.16485   0.17932   0.20052   0.20567
  Beta virt. eigenvalues --    0.22344   0.24514   0.28095   0.33843   0.34467
  Beta virt. eigenvalues --    0.38553   0.42816   0.48491   0.49548   0.53076
  Beta virt. eigenvalues --    0.55270   0.58229   0.60043   0.62511   0.64886
  Beta virt. eigenvalues --    0.65906   0.67485   0.68274   0.69940   0.70958
  Beta virt. eigenvalues --    0.72123   0.72317   0.72621   0.73893   0.75998
  Beta virt. eigenvalues --    0.77780   0.80083   0.83027   0.84420   0.89366
  Beta virt. eigenvalues --    0.90356   0.92649   0.98777   0.99750   1.05260
  Beta virt. eigenvalues --    1.07858   1.10884   1.17161   1.21757   1.26225
  Beta virt. eigenvalues --    1.27607   1.33285   1.37934   1.41845   1.47414
  Beta virt. eigenvalues --    1.50766   1.53707   1.58217   1.64582   1.65633
  Beta virt. eigenvalues --    1.72662   1.73836   1.76627   1.77906   1.78639
  Beta virt. eigenvalues --    1.81111   1.82249   1.85584   1.87274   1.88867
  Beta virt. eigenvalues --    1.90655   1.93356   1.95520   1.99245   2.00279
  Beta virt. eigenvalues --    2.03872   2.05906   2.08397   2.11907   2.13829
  Beta virt. eigenvalues --    2.14921   2.17310   2.24363   2.27460   2.35631
  Beta virt. eigenvalues --    2.36611   2.41137   2.44403   2.49177   2.52988
  Beta virt. eigenvalues --    2.57537   2.62990   2.69268   2.73176   2.74095
  Beta virt. eigenvalues --    2.81583   2.82574   2.84541   2.88172   2.95423
  Beta virt. eigenvalues --    2.97134   3.02925   3.05098   3.07540   3.10194
  Beta virt. eigenvalues --    3.14409   3.23370   3.25118   3.41064   3.45146
  Beta virt. eigenvalues --    3.71048
          Condensed to atoms (all electrons):
               1          2          3          4          5          6
     1  C    4.522914   0.406068  -0.059984   0.002922   0.005611  -0.071177
     2  C    0.406068   5.259740   0.246857  -0.036777  -0.058713   0.314984
     3  C   -0.059984   0.246857   4.979365   0.608217  -0.103104  -0.065586
     4  N    0.002922  -0.036777   0.608217   6.310351   0.171469  -0.056881
     5  O    0.005611  -0.058713  -0.103104   0.171469   8.179600   0.243047
     6  C   -0.071177   0.314984  -0.065586  -0.056881   0.243047   4.707882
     7  N    0.014977  -0.098232   0.005591  -0.004161  -0.080887   0.401930
     8  H    0.392843  -0.023949  -0.007067   0.000087  -0.000091   0.009418
     9  H    0.395253  -0.013924  -0.004755   0.000371   0.000449  -0.017703
    10  H    0.395519  -0.017019   0.007091  -0.000178  -0.000023  -0.004932
    11  H   -0.019830   0.326740  -0.010636  -0.006288   0.005509  -0.001184
    12  H    0.000364  -0.059105   0.418772  -0.028584   0.005807   0.004584
    13  H   -0.000271  -0.009045   0.004636   0.005676  -0.028756   0.384068
    14  H   -0.000794  -0.016535   0.006403   0.002554  -0.003384  -0.010365
    15  H   -0.000085   0.013226  -0.001093  -0.000608   0.002601  -0.021881
               7          8          9         10         11         12
     1  C    0.014977   0.392843   0.395253   0.395519  -0.019830   0.000364
     2  C   -0.098232  -0.023949  -0.013924  -0.017019   0.326740  -0.059105
     3  C    0.005591  -0.007067  -0.004755   0.007091  -0.010636   0.418772
     4  N   -0.004161   0.000087   0.000371  -0.000178  -0.006288  -0.028584
     5  O   -0.080887  -0.000091   0.000449  -0.000023   0.005509   0.005807
     6  C    0.401930   0.009418  -0.017703  -0.004932  -0.001184   0.004584
     7  N    6.271927   0.000582   0.011110   0.001121   0.005834   0.000101
     8  H    0.000582   0.630288  -0.023437  -0.020229  -0.006462   0.001689
     9  H    0.011110  -0.023437   0.628950  -0.021641   0.007128   0.000052
    10  H    0.001121  -0.020229  -0.021641   0.608527  -0.006754  -0.000144
    11  H    0.005834  -0.006462   0.007128  -0.006754   0.644889   0.001468
    12  H    0.000101   0.001689   0.000052  -0.000144   0.001468   0.601915
    13  H   -0.040783  -0.000228  -0.000283   0.001243  -0.012409  -0.000236
    14  H    0.344952  -0.000257   0.000573   0.000170   0.000009  -0.000348
    15  H    0.354494   0.000003  -0.000474  -0.000171  -0.000432   0.000026
              13         14         15
     1  C   -0.000271  -0.000794  -0.000085
     2  C   -0.009045  -0.016535   0.013226
     3  C    0.004636   0.006403  -0.001093
     4  N    0.005676   0.002554  -0.000608
     5  O   -0.028756  -0.003384   0.002601
     6  C    0.384068  -0.010365  -0.021881
     7  N   -0.040783   0.344952   0.354494
     8  H   -0.000228  -0.000257   0.000003
     9  H   -0.000283   0.000573  -0.000474
    10  H    0.001243   0.000170  -0.000171
    11  H   -0.012409   0.000009  -0.000432
    12  H   -0.000236  -0.000348   0.000026
    13  H    0.652930   0.009471  -0.009219
    14  H    0.009471   0.578583  -0.026523
    15  H   -0.009219  -0.026523   0.562034
          Atomic-Atomic Spin Densities.
               1          2          3          4          5          6
     1  C    0.000000   0.000000   0.000000   0.000000   0.000000   0.000000
     2  C    0.000000   0.000000   0.000000   0.000000   0.000000   0.000000
     3  C    0.000000   0.000000   0.000000   0.000000   0.000000   0.000000
     4  N    0.000000   0.000000   0.000000   0.000000   0.000000   0.000000
     5  O    0.000000   0.000000   0.000000   0.000000   0.000000   0.000000
     6  C    0.000000   0.000000   0.000000   0.000000   0.000000   0.000000
     7  N    0.000000   0.000000   0.000000   0.000000   0.000000   0.000000
     8  H    0.000000   0.000000   0.000000   0.000000   0.000000   0.000000
     9  H    0.000000   0.000000   0.000000   0.000000   0.000000   0.000000
    10  H    0.000000   0.000000   0.000000   0.000000   0.000000   0.000000
    11  H    0.000000   0.000000   0.000000   0.000000   0.000000   0.000000
    12  H    0.000000   0.000000   0.000000   0.000000   0.000000   0.000000
    13  H    0.000000   0.000000   0.000000   0.000000   0.000000   0.000000
    14  H    0.000000   0.000000   0.000000   0.000000   0.000000   0.000000
    15  H    0.000000   0.000000   0.000000   0.000000   0.000000   0.000000
               7          8          9         10         11         12
     1  C    0.000000   0.000000   0.000000   0.000000   0.000000   0.000000
     2  C    0.000000   0.000000   0.000000   0.000000   0.000000   0.000000
     3  C    0.000000   0.000000   0.000000   0.000000   0.000000   0.000000
     4  N    0.000000   0.000000   0.000000   0.000000   0.000000   0.000000
     5  O    0.000000   0.000000   0.000000   0.000000   0.000000   0.000000
     6  C    0.000000   0.000000   0.000000   0.000000   0.000000   0.000000
     7  N    0.000000   0.000000   0.000000   0.000000   0.000000   0.000000
     8  H    0.000000   0.000000   0.000000   0.000000   0.000000   0.000000
     9  H    0.000000   0.000000   0.000000   0.000000   0.000000   0.000000
    10  H    0.000000   0.000000   0.000000   0.000000   0.000000   0.000000
    11  H    0.000000   0.000000   0.000000   0.000000   0.000000   0.000000
    12  H    0.000000   0.000000   0.000000   0.000000   0.000000   0.000000
    13  H    0.000000   0.000000   0.000000   0.000000   0.000000   0.000000
    14  H    0.000000   0.000000   0.000000   0.000000   0.000000   0.000000
    15  H    0.000000   0.000000   0.000000   0.000000   0.000000   0.000000
              13         14         15
     1  C    0.000000   0.000000   0.000000
     2  C    0.000000   0.000000   0.000000
     3  C    0.000000   0.000000   0.000000
     4  N    0.000000   0.000000   0.000000
     5  O    0.000000   0.000000   0.000000
     6  C    0.000000   0.000000   0.000000
     7  N    0.000000   0.000000   0.000000
     8  H    0.000000   0.000000   0.000000
     9  H    0.000000   0.000000   0.000000
    10  H    0.000000   0.000000   0.000000
    11  H    0.000000   0.000000   0.000000
    12  H    0.000000   0.000000   0.000000
    13  H    0.000000   0.000000   0.000000
    14  H    0.000000   0.000000   0.000000
    15  H    0.000000   0.000000   0.000000
 Mulliken charges and spin densities:
               1          2
     1  C    0.015672   0.000000
     2  C   -0.234317   0.000000
     3  C   -0.024707   0.000000
     4  N    0.031830   0.000000
     5  O   -0.339134   0.000000
     6  C    0.183798   0.000000
     7  N   -0.188556   0.000000
     8  H    0.046809   0.000000
     9  H    0.038331   0.000000
    10  H    0.057420   0.000000
    11  H    0.072420   0.000000
    12  H    0.053638   0.000000
    13  H    0.043205   0.000000
    14  H    0.115490   0.000000
    15  H    0.128101   0.000000
 Sum of Mulliken charges =  -0.00000   0.00000
 Mulliken charges and spin densities with hydrogens summed into heavy atoms:
               1          2
     1  C    0.158231   0.000000
     2  C   -0.161897   0.000000
     3  C    0.028931   0.000000
     4  N    0.031830   0.000000
     5  O   -0.339134   0.000000
     6  C    0.227003   0.000000
     7  N    0.055035   0.000000
 APT charges:
               1
     1  C    0.065837
     2  C   -0.003885
     3  C    0.072546
     4  N    0.019084
     5  O   -0.615445
     6  C    0.637568
     7  N   -0.545908
     8  H   -0.004991
     9  H    0.001573
    10  H    0.005326
    11  H   -0.015516
    12  H    0.062223
    13  H   -0.018224
    14  H    0.160684
    15  H    0.179127
 Sum of APT charges =   0.00000
 APT charges with hydrogens summed into heavy atoms:
               1
     1  C    0.067745
     2  C   -0.019400
     3  C    0.134769
     4  N    0.019084
     5  O   -0.615445
     6  C    0.619343
     7  N   -0.206096
 Electronic spatial extent (au):  <R**2>=            668.5200
 Charge=             -0.0000 electrons
 Dipole moment (field-independent basis, Debye):
    X=              2.5390    Y=              0.2486    Z=              0.0912  Tot=              2.5527
 Quadrupole moment (field-independent basis, Debye-Ang):
   XX=            -49.0208   YY=            -39.1589   ZZ=            -39.6070
   XY=             -4.9748   XZ=              0.0763   YZ=             -0.5153
 Traceless Quadrupole moment (field-independent basis, Debye-Ang):
   XX=             -6.4252   YY=              3.4367   ZZ=              2.9886
   XY=             -4.9748   XZ=              0.0763   YZ=             -0.5153
 Octapole moment (field-independent basis, Debye-Ang**2):
  XXX=              7.2869  YYY=              5.7318  ZZZ=             -0.7618  XYY=             -6.1174
  XXY=              3.1917  XXZ=              1.7535  XZZ=             -0.7490  YZZ=              4.9911
  YYZ=             -2.1209  XYZ=              2.4939
 Hexadecapole moment (field-independent basis, Debye-Ang**3):
 XXXX=           -446.1854 YYYY=           -296.0587 ZZZZ=            -99.5410 XXXY=             -9.2779
 XXXZ=             -0.7983 YYYX=            -26.9377 YYYZ=              1.1755 ZZZX=             -2.6133
 ZZZY=             -5.7591 XXYY=           -132.1812 XXZZ=            -90.9889 YYZZ=            -67.0721
 XXYZ=             -3.0242 YYXZ=              1.0199 ZZXY=             -1.9629
 N-N= 3.205795463756D+02 E-N=-1.436559951433D+03  KE= 3.384102854430D+02
  Exact polarizability:      57.624      -4.127      59.802       0.287       2.643      46.935
 Approx polarizability:      71.903      -6.517      69.348      -0.084       3.991      58.311
                          Isotropic Fermi Contact Couplings
        Atom                 a.u.       MegaHertz       Gauss      10(-4) cm-1
     1  C(13)              0.00000       0.00000       0.00000       0.00000
     2  C(13)              0.00000       0.00000       0.00000       0.00000
     3  C(13)              0.00000       0.00000       0.00000       0.00000
     4  N(14)              0.00000       0.00000       0.00000       0.00000
     5  O(17)              0.00000      -0.00000      -0.00000      -0.00000
     6  C(13)              0.00000       0.00000       0.00000       0.00000
     7  N(14)              0.00000       0.00000       0.00000       0.00000
     8  H(1)               0.00000       0.00000       0.00000       0.00000
     9  H(1)               0.00000       0.00000       0.00000       0.00000
    10  H(1)               0.00000       0.00000       0.00000       0.00000
    11  H(1)               0.00000       0.00000       0.00000       0.00000
    12  H(1)               0.00000       0.00000       0.00000       0.00000
    13  H(1)               0.00000       0.00000       0.00000       0.00000
    14  H(1)               0.00000       0.00000       0.00000       0.00000
    15  H(1)               0.00000       0.00000       0.00000       0.00000
 --------------------------------------------------------
       Center         ----  Spin Dipole Couplings  ----
                      3XX-RR        3YY-RR        3ZZ-RR
 --------------------------------------------------------
     1   Atom        0.000000      0.000000      0.000000
     2   Atom        0.000000      0.000000      0.000000
     3   Atom        0.000000      0.000000      0.000000
     4   Atom        0.000000      0.000000      0.000000
     5   Atom        0.000000      0.000000      0.000000
     6   Atom        0.000000      0.000000      0.000000
     7   Atom        0.000000      0.000000      0.000000
     8   Atom        0.000000      0.000000      0.000000
     9   Atom        0.000000      0.000000      0.000000
    10   Atom        0.000000      0.000000      0.000000
    11   Atom        0.000000      0.000000      0.000000
    12   Atom        0.000000      0.000000      0.000000
    13   Atom        0.000000      0.000000      0.000000
    14   Atom        0.000000      0.000000      0.000000
    15   Atom        0.000000      0.000000      0.000000
 --------------------------------------------------------
                        XY            XZ            YZ
 --------------------------------------------------------
     1   Atom        0.000000      0.000000      0.000000
     2   Atom        0.000000      0.000000      0.000000
     3   Atom        0.000000      0.000000      0.000000
     4   Atom        0.000000      0.000000      0.000000
     5   Atom        0.000000      0.000000      0.000000
     6   Atom        0.000000      0.000000      0.000000
     7   Atom        0.000000      0.000000      0.000000
     8   Atom        0.000000      0.000000      0.000000
     9   Atom        0.000000      0.000000      0.000000
    10   Atom        0.000000      0.000000      0.000000
    11   Atom        0.000000      0.000000      0.000000
    12   Atom        0.000000      0.000000      0.000000
    13   Atom        0.000000      0.000000      0.000000
    14   Atom        0.000000      0.000000      0.000000
    15   Atom        0.000000      0.000000      0.000000
 --------------------------------------------------------


 ---------------------------------------------------------------------------------
              Anisotropic Spin Dipole Couplings in Principal Axis System
 ---------------------------------------------------------------------------------

       Atom             a.u.   MegaHertz   Gauss  10(-4) cm-1        Axes

              Baa     0.0000     0.000     0.000     0.000  1.0000  0.0000  0.0000
     1 C(13)  Bbb     0.0000     0.000     0.000     0.000 -0.0000  1.0000  0.0000
              Bcc     0.0000     0.000     0.000     0.000  0.0000  0.0000  1.0000
 
              Baa     0.0000     0.000     0.000     0.000  1.0000  0.0000  0.0000
     2 C(13)  Bbb     0.0000     0.000     0.000     0.000 -0.0000  1.0000  0.0000
              Bcc     0.0000     0.000     0.000     0.000  0.0000  0.0000  1.0000
 
              Baa     0.0000     0.000     0.000     0.000  1.0000  0.0000  0.0000
     3 C(13)  Bbb     0.0000     0.000     0.000     0.000 -0.0000  1.0000  0.0000
              Bcc     0.0000     0.000     0.000     0.000  0.0000  0.0000  1.0000
 
              Baa     0.0000     0.000     0.000     0.000  1.0000  0.0000  0.0000
     4 N(14)  Bbb     0.0000     0.000     0.000     0.000 -0.0000  1.0000  0.0000
              Bcc     0.0000     0.000     0.000     0.000  0.0000  0.0000  1.0000
 
              Baa     0.0000    -0.000    -0.000    -0.000  1.0000  0.0000  0.0000
     5 O(17)  Bbb     0.0000    -0.000    -0.000    -0.000 -0.0000  1.0000  0.0000
              Bcc     0.0000    -0.000    -0.000    -0.000  0.0000  0.0000  1.0000
 
              Baa     0.0000     0.000     0.000     0.000  1.0000  0.0000  0.0000
     6 C(13)  Bbb     0.0000     0.000     0.000     0.000 -0.0000  1.0000  0.0000
              Bcc     0.0000     0.000     0.000     0.000  0.0000  0.0000  1.0000
 
              Baa     0.0000     0.000     0.000     0.000  1.0000  0.0000  0.0000
     7 N(14)  Bbb     0.0000     0.000     0.000     0.000 -0.0000  1.0000  0.0000
              Bcc     0.0000     0.000     0.000     0.000  0.0000  0.0000  1.0000
 
              Baa     0.0000     0.000     0.000     0.000  1.0000  0.0000  0.0000
     8 H(1)   Bbb     0.0000     0.000     0.000     0.000 -0.0000  1.0000  0.0000
              Bcc     0.0000     0.000     0.000     0.000  0.0000  0.0000  1.0000
 
              Baa     0.0000     0.000     0.000     0.000  1.0000  0.0000  0.0000
     9 H(1)   Bbb     0.0000     0.000     0.000     0.000 -0.0000  1.0000  0.0000
              Bcc     0.0000     0.000     0.000     0.000  0.0000  0.0000  1.0000
 
              Baa     0.0000     0.000     0.000     0.000  1.0000  0.0000  0.0000
    10 H(1)   Bbb     0.0000     0.000     0.000     0.000 -0.0000  1.0000  0.0000
              Bcc     0.0000     0.000     0.000     0.000  0.0000  0.0000  1.0000
 
              Baa     0.0000     0.000     0.000     0.000  1.0000  0.0000  0.0000
    11 H(1)   Bbb     0.0000     0.000     0.000     0.000 -0.0000  1.0000  0.0000
              Bcc     0.0000     0.000     0.000     0.000  0.0000  0.0000  1.0000
 
              Baa     0.0000     0.000     0.000     0.000  1.0000  0.0000  0.0000
    12 H(1)   Bbb     0.0000     0.000     0.000     0.000 -0.0000  1.0000  0.0000
              Bcc     0.0000     0.000     0.000     0.000  0.0000  0.0000  1.0000
 
              Baa     0.0000     0.000     0.000     0.000  1.0000  0.0000  0.0000
    13 H(1)   Bbb     0.0000     0.000     0.000     0.000 -0.0000  1.0000  0.0000
              Bcc     0.0000     0.000     0.000     0.000  0.0000  0.0000  1.0000
 
              Baa     0.0000     0.000     0.000     0.000  1.0000  0.0000  0.0000
    14 H(1)   Bbb     0.0000     0.000     0.000     0.000 -0.0000  1.0000  0.0000
              Bcc     0.0000     0.000     0.000     0.000  0.0000  0.0000  1.0000
 
              Baa     0.0000     0.000     0.000     0.000  1.0000  0.0000  0.0000
    15 H(1)   Bbb     0.0000     0.000     0.000     0.000 -0.0000  1.0000  0.0000
              Bcc     0.0000     0.000     0.000     0.000  0.0000  0.0000  1.0000
 

 ---------------------------------------------------------------------------------

   1 Symmetry operations used in ECPInt.
 ECPInt:  NShTT=    2211 NPrTT=    7865 LenC2=    2206 LenP2D=    6592.
 LDataN:  DoStor=T MaxTD1= 6 Len=  172
 Calling FoFJK, ICntrl=    100127 FMM=F ISym2X=0 I1Cent= 0 IOpClX= 1 NMat=1 NMatS=1 NMatT=0.
 Full mass-weighted force constant matrix:
 Low frequencies ---  -13.7511   -8.6592   -0.0004    0.0003    0.0009   11.1855
 Low frequencies ---  101.3265  212.2658  282.4449
 Diagonal vibrational polarizability:
        8.1791551      19.8130953       8.1768923
 Harmonic frequencies (cm**-1), IR intensities (KM/Mole), Raman scattering
 activities (A**4/AMU), depolarization ratios for plane and unpolarized
 incident light, reduced masses (AMU), force constants (mDyne/A),
 and normal coordinates:
                      1                      2                      3
                      A                      A                      A
 Frequencies --    101.3252               212.2602               282.4426
 Red. masses --      3.4430                 1.1365                 2.1075
 Frc consts  --      0.0208                 0.0302                 0.0991
 IR Inten    --      1.2277                 0.2320                 3.0222
  Atom  AN      X      Y      Z        X      Y      Z        X      Y      Z
     1   6     0.08  -0.01   0.17    -0.01   0.04   0.00     0.09  -0.15   0.07
     2   6    -0.00  -0.01  -0.04    -0.01  -0.02   0.00     0.01   0.02  -0.07
     3   6     0.00   0.11  -0.19    -0.01   0.01  -0.04     0.01  -0.01  -0.03
     4   7    -0.02   0.08  -0.02    -0.01   0.03  -0.03    -0.00  -0.05   0.05
     5   8     0.01  -0.03   0.22    -0.00  -0.00   0.04     0.02  -0.01  -0.00
     6   6     0.03   0.00  -0.01     0.00  -0.02   0.02     0.02   0.03  -0.07
     7   7    -0.09  -0.12  -0.17     0.03  -0.05   0.00    -0.11   0.16   0.00
     8   1     0.00  -0.06   0.05     0.22   0.19   0.49     0.05  -0.16   0.40
     9   1     0.24   0.22   0.24    -0.04  -0.48  -0.17     0.23  -0.42  -0.03
    10   1     0.06  -0.17   0.40    -0.24   0.47  -0.33     0.03  -0.03  -0.04
    11   1    -0.16  -0.11  -0.06    -0.01  -0.04  -0.00    -0.09   0.06  -0.05
    12   1    -0.00   0.19  -0.37    -0.02   0.04  -0.09     0.01  -0.02  -0.01
    13   1     0.16   0.09  -0.05     0.02  -0.01   0.01     0.06  -0.03  -0.04
    14   1    -0.16  -0.25  -0.11     0.06  -0.07   0.01    -0.40   0.36  -0.07
    15   1    -0.12  -0.14  -0.22     0.03  -0.04  -0.04     0.01   0.25   0.33
                      4                      5                      6
                      A                      A                      A
 Frequencies --    284.8993               347.9108               433.6498
 Red. masses --      2.6848                 1.3381                 2.6937
 Frc consts  --      0.1284                 0.0954                 0.2985
 IR Inten    --      3.2474                37.2048                41.9616
  Atom  AN      X      Y      Z        X      Y      Z        X      Y      Z
     1   6     0.04   0.18   0.08     0.05  -0.02   0.01    -0.07  -0.02  -0.02
     2   6    -0.01  -0.07  -0.13     0.01   0.03  -0.07    -0.06   0.12  -0.01
     3   6    -0.10  -0.08  -0.04    -0.02   0.01  -0.04     0.07   0.08  -0.08
     4   7    -0.11  -0.07   0.14    -0.04  -0.04   0.07    -0.00  -0.12   0.06
     5   8     0.01   0.03  -0.04    -0.02  -0.01  -0.01    -0.09  -0.11   0.09
     6   6     0.04  -0.05  -0.07    -0.01   0.02  -0.01    -0.09   0.07  -0.04
     7   7     0.10   0.00   0.00     0.01   0.06   0.05     0.18  -0.00  -0.00
     8   1     0.23   0.29   0.04     0.00  -0.05   0.09    -0.22  -0.11  -0.00
     9   1     0.18   0.37   0.14     0.18  -0.08  -0.02    -0.06  -0.08  -0.03
    10   1    -0.22   0.21   0.31     0.05  -0.04   0.04     0.07  -0.09  -0.07
    11   1    -0.04  -0.11  -0.14    -0.01   0.01  -0.08    -0.13   0.08  -0.02
    12   1    -0.23  -0.16   0.05    -0.03  -0.01  -0.00     0.23   0.17  -0.18
    13   1     0.12  -0.10  -0.04    -0.06  -0.04   0.02    -0.14   0.12  -0.07
    14   1    -0.11   0.15  -0.05     0.71  -0.08   0.08     0.19   0.13  -0.06
    15   1     0.31   0.16   0.21    -0.40  -0.26  -0.39     0.64   0.36   0.03
                      7                      8                      9
                      A                      A                      A
 Frequencies --    514.8535               590.4483               737.9080
 Red. masses --      3.7933                 4.0526                 2.3540
 Frc consts  --      0.5924                 0.8324                 0.7552
 IR Inten    --      6.9536                14.8313                21.8057
  Atom  AN      X      Y      Z        X      Y      Z        X      Y      Z
     1   6    -0.21   0.02   0.05    -0.20  -0.02   0.05     0.12  -0.01   0.00
     2   6    -0.10  -0.08   0.05    -0.06  -0.04   0.07     0.10  -0.13   0.20
     3   6    -0.02  -0.14   0.02     0.12   0.10  -0.21    -0.02   0.06  -0.02
     4   7     0.04  -0.00  -0.10     0.04  -0.09   0.24    -0.06   0.01   0.04
     5   8     0.14  -0.09   0.16     0.12   0.09  -0.16    -0.11  -0.01  -0.02
     6   6     0.10   0.03  -0.13     0.09  -0.00   0.05     0.01  -0.05  -0.09
     7   7     0.03   0.21  -0.06    -0.03  -0.00  -0.01    -0.02   0.05  -0.03
     8   1    -0.04   0.11  -0.10    -0.17  -0.01  -0.05     0.33   0.10  -0.28
     9   1    -0.36   0.12   0.09    -0.45  -0.07   0.04    -0.33   0.04   0.03
    10   1    -0.29   0.08   0.06    -0.12   0.03  -0.11     0.17   0.11  -0.20
    11   1    -0.21   0.08   0.12    -0.25  -0.25   0.01    -0.00  -0.08   0.22
    12   1    -0.00  -0.11  -0.03     0.17   0.15  -0.28    -0.03   0.24  -0.40
    13   1     0.18   0.05  -0.13     0.08  -0.01   0.06    -0.09   0.03  -0.15
    14   1     0.43   0.34  -0.13    -0.24  -0.14   0.05     0.26   0.31  -0.15
    15   1    -0.23  -0.00  -0.09    -0.30  -0.22   0.01     0.00   0.06   0.09
                     10                     11                     12
                      A                      A                      A
 Frequencies --    815.0830               856.4920               869.5846
 Red. masses --      2.3993                 1.7188                 1.6564
 Frc consts  --      0.9392                 0.7429                 0.7380
 IR Inten    --     54.1601                 7.5852                 2.4549
  Atom  AN      X      Y      Z        X      Y      Z        X      Y      Z
     1   6    -0.06  -0.02   0.01     0.06  -0.03   0.00     0.01   0.04   0.03
     2   6    -0.00  -0.07  -0.07     0.00  -0.08   0.03     0.01   0.08   0.03
     3   6     0.09   0.01   0.00     0.02  -0.04  -0.12    -0.01   0.13  -0.06
     4   7     0.13   0.13   0.08     0.03  -0.01   0.00    -0.06   0.00  -0.03
     5   8     0.00   0.05  -0.00    -0.00  -0.00   0.02     0.02  -0.05   0.01
     6   6    -0.08  -0.05  -0.08    -0.08   0.12   0.10     0.07  -0.09  -0.07
     7   7    -0.15  -0.10   0.04    -0.00   0.06  -0.04    -0.00  -0.04   0.02
     8   1    -0.03   0.00   0.02     0.22   0.06  -0.16    -0.15  -0.06  -0.04
     9   1     0.02   0.01   0.01    -0.17   0.02   0.02    -0.16  -0.09  -0.01
    10   1    -0.15  -0.02   0.09     0.04   0.07  -0.11     0.23   0.00  -0.15
    11   1     0.01  -0.03  -0.05    -0.12  -0.30  -0.04    -0.16   0.02   0.02
    12   1    -0.11  -0.11   0.15    -0.26  -0.41   0.50    -0.12  -0.27   0.74
    13   1     0.04  -0.07  -0.07    -0.17   0.18   0.07     0.05  -0.07  -0.09
    14   1     0.64   0.27  -0.13    -0.04  -0.15   0.05     0.06   0.18  -0.07
    15   1     0.42   0.33   0.07     0.16   0.19  -0.24    -0.10  -0.13   0.23
                     13                     14                     15
                      A                      A                      A
 Frequencies --    877.2147               942.3380               967.5157
 Red. masses --      2.9106                 2.5541                 4.0285
 Frc consts  --      1.3196                 1.3363                 2.2218
 IR Inten    --     53.2849               121.1877                47.1571
  Atom  AN      X      Y      Z        X      Y      Z        X      Y      Z
     1   6     0.04   0.05   0.02    -0.05  -0.08  -0.02     0.07  -0.07  -0.03
     2   6    -0.00   0.10   0.07     0.01  -0.03  -0.04    -0.04  -0.01   0.01
     3   6    -0.13  -0.09  -0.04    -0.00   0.13   0.06     0.00   0.10   0.06
     4   7    -0.11  -0.00  -0.00    -0.06  -0.05  -0.05    -0.10  -0.22  -0.11
     5   8     0.19  -0.08  -0.07    -0.09  -0.07  -0.05     0.19   0.21   0.08
     6   6     0.06   0.09   0.07     0.23   0.10   0.08    -0.19  -0.05  -0.04
     7   7    -0.13  -0.08   0.03    -0.08  -0.02  -0.01    -0.04  -0.04   0.03
     8   1    -0.13  -0.05  -0.03     0.32   0.14  -0.02     0.40   0.12  -0.15
     9   1    -0.04  -0.08  -0.03     0.05   0.18   0.06    -0.05   0.15   0.04
    10   1     0.30  -0.01  -0.15    -0.47   0.06   0.21    -0.19   0.09   0.01
    11   1    -0.03   0.19   0.10     0.05  -0.08  -0.05    -0.20  -0.17  -0.04
    12   1    -0.12   0.06  -0.36     0.34   0.12   0.29     0.56   0.22   0.14
    13   1    -0.17   0.14   0.04     0.22   0.06   0.10    -0.01  -0.01  -0.04
    14   1     0.35  -0.04   0.01     0.23  -0.05   0.01     0.15   0.09  -0.03
    15   1     0.45   0.36  -0.06     0.22   0.20  -0.04     0.09   0.07  -0.01
                     16                     17                     18
                      A                      A                      A
 Frequencies --    991.3309              1026.3115              1106.4136
 Red. masses --      2.3725                 1.6205                 1.6728
 Frc consts  --      1.3737                 1.0057                 1.2065
 IR Inten    --     42.9760                27.5980                 1.3768
  Atom  AN      X      Y      Z        X      Y      Z        X      Y      Z
     1   6     0.04   0.04   0.06    -0.06   0.08  -0.03    -0.01  -0.06  -0.07
     2   6    -0.03   0.04  -0.04     0.05  -0.05   0.09     0.00   0.06   0.10
     3   6     0.04  -0.14  -0.03     0.01  -0.02  -0.05     0.02  -0.06  -0.12
     4   7     0.03  -0.09  -0.05    -0.03  -0.08  -0.04     0.01  -0.03   0.00
     5   8    -0.14   0.14   0.04    -0.03   0.08   0.02    -0.02   0.05   0.02
     6   6     0.11   0.04  -0.00     0.02  -0.02   0.05     0.02   0.05  -0.05
     7   7    -0.04  -0.05   0.04    -0.02   0.03  -0.06     0.00  -0.06   0.06
     8   1    -0.10  -0.05  -0.17    -0.42  -0.12   0.30     0.25   0.09   0.07
     9   1    -0.32  -0.11   0.02     0.35  -0.13  -0.11     0.24   0.18   0.00
    10   1     0.37   0.05  -0.27     0.12  -0.17   0.12    -0.33  -0.01   0.18
    11   1    -0.36   0.18   0.03     0.50  -0.31  -0.04     0.14   0.53   0.26
    12   1     0.11  -0.10  -0.10     0.03  -0.07   0.06    -0.22  -0.20   0.01
    13   1     0.54  -0.09   0.08     0.07   0.11  -0.01    -0.08   0.25  -0.15
    14   1     0.13  -0.05   0.04     0.17   0.19  -0.13    -0.02   0.06   0.01
    15   1     0.06   0.03   0.02     0.05   0.08   0.04    -0.12  -0.17   0.21
                     19                     20                     21
                      A                      A                      A
 Frequencies --   1132.7132              1171.3488              1243.6686
 Red. masses --      1.5535                 1.5912                 1.9566
 Frc consts  --      1.1743                 1.2863                 1.7830
 IR Inten    --      4.4952                 4.2970                18.8089
  Atom  AN      X      Y      Z        X      Y      Z        X      Y      Z
     1   6    -0.07  -0.04   0.07    -0.05  -0.04   0.09     0.03  -0.06  -0.01
     2   6     0.16   0.03  -0.02     0.12   0.05  -0.10    -0.05   0.15   0.02
     3   6     0.00   0.04  -0.02    -0.01  -0.03   0.03    -0.00  -0.00   0.01
     4   7    -0.03  -0.04  -0.02    -0.01  -0.02  -0.02     0.04  -0.02  -0.00
     5   8     0.01   0.02   0.01    -0.01   0.02   0.01    -0.00  -0.01  -0.03
     6   6    -0.04  -0.05  -0.02     0.01   0.06   0.01    -0.04  -0.09   0.17
     7   7    -0.01   0.05  -0.00     0.01  -0.06   0.02     0.02   0.01  -0.11
     8   1    -0.04  -0.02  -0.02    -0.02  -0.02  -0.11     0.18   0.03  -0.03
     9   1    -0.28   0.02   0.10    -0.39  -0.03   0.11    -0.04   0.16   0.06
    10   1    -0.13   0.04   0.02    -0.06   0.09  -0.07    -0.14   0.08  -0.03
    11   1     0.37   0.37   0.09     0.27  -0.27  -0.24    -0.03  -0.13  -0.09
    12   1    -0.30  -0.05  -0.02    -0.09   0.00  -0.10    -0.45  -0.04  -0.17
    13   1     0.18  -0.40   0.16    -0.38   0.43  -0.18     0.42  -0.08   0.19
    14   1    -0.07  -0.25   0.12     0.04   0.20  -0.09     0.21   0.43  -0.29
    15   1     0.17   0.20  -0.32    -0.14  -0.19   0.26    -0.07  -0.07   0.16
                     22                     23                     24
                      A                      A                      A
 Frequencies --   1252.9665              1311.6833              1325.2933
 Red. masses --      1.5076                 1.5509                 1.6765
 Frc consts  --      1.3945                 1.5722                 1.7349
 IR Inten    --      6.5509                 7.3755                 5.9746
  Atom  AN      X      Y      Z        X      Y      Z        X      Y      Z
     1   6     0.01  -0.03   0.04     0.02   0.02   0.05     0.01   0.05  -0.00
     2   6    -0.03   0.03  -0.02    -0.08  -0.10  -0.04     0.01  -0.13  -0.09
     3   6    -0.02  -0.09  -0.08     0.00   0.06   0.00     0.03   0.07   0.03
     4   7    -0.03   0.08   0.04    -0.01  -0.00   0.00     0.00  -0.05  -0.02
     5   8    -0.01   0.01  -0.00     0.03  -0.05  -0.03     0.01   0.02   0.00
     6   6    -0.01  -0.07   0.07    -0.09   0.09   0.00     0.02  -0.03   0.13
     7   7     0.01   0.02  -0.06     0.02  -0.03   0.03     0.01   0.01  -0.06
     8   1     0.09   0.01  -0.09     0.03   0.00  -0.16    -0.17  -0.06  -0.01
     9   1    -0.12   0.03   0.06    -0.04  -0.13   0.00    -0.05  -0.14  -0.06
    10   1     0.01   0.06  -0.08     0.17   0.02  -0.10     0.01  -0.03   0.09
    11   1     0.36   0.28   0.05     0.52   0.26   0.06    -0.32   0.66   0.23
    12   1     0.75  -0.03   0.22    -0.01   0.05   0.05    -0.19   0.04  -0.01
    13   1    -0.19  -0.10   0.08     0.63   0.28  -0.06    -0.40   0.15   0.04
    14   1     0.05   0.14  -0.11    -0.01   0.08  -0.02     0.07   0.18  -0.13
    15   1     0.00   0.01   0.01    -0.09  -0.11   0.09    -0.02  -0.02   0.08
                     25                     26                     27
                      A                      A                      A
 Frequencies --   1372.1701              1404.7401              1436.7617
 Red. masses --      1.5302                 1.4381                 1.4288
 Frc consts  --      1.6975                 1.6720                 1.7377
 IR Inten    --      3.5478                 1.2512                 7.9358
  Atom  AN      X      Y      Z        X      Y      Z        X      Y      Z
     1   6     0.00   0.01  -0.05     0.16   0.01  -0.04    -0.02  -0.03   0.02
     2   6     0.16  -0.00   0.01    -0.10   0.00   0.02    -0.03   0.02  -0.02
     3   6    -0.03  -0.04  -0.02     0.01   0.01  -0.00     0.01   0.01   0.01
     4   7    -0.04   0.05   0.01     0.01  -0.01   0.00     0.01  -0.00  -0.00
     5   8     0.00  -0.03  -0.03    -0.00   0.01   0.01    -0.01   0.01  -0.00
     6   6    -0.09  -0.00   0.03     0.03  -0.02  -0.02     0.04  -0.16   0.02
     7   7     0.01  -0.00   0.02    -0.01   0.01   0.01    -0.02   0.06   0.03
     8   1    -0.19  -0.08   0.25    -0.47  -0.34   0.09     0.00  -0.01  -0.03
     9   1    -0.20   0.03  -0.03    -0.47   0.04   0.00     0.18   0.20   0.08
    10   1    -0.20  -0.07   0.24    -0.45   0.25   0.23     0.07   0.14  -0.27
    11   1    -0.47   0.02   0.07     0.22  -0.05  -0.03     0.03   0.03  -0.02
    12   1     0.31  -0.00   0.07    -0.06  -0.00  -0.02    -0.07   0.00  -0.02
    13   1     0.49   0.34  -0.11    -0.06   0.02  -0.05     0.06   0.66  -0.39
    14   1    -0.02   0.08  -0.02    -0.01  -0.06   0.04    -0.08  -0.17   0.13
    15   1    -0.03  -0.03  -0.06     0.03   0.04  -0.05     0.12   0.18  -0.29
                     28                     29                     30
                      A                      A                      A
 Frequencies --   1469.0629              1472.3170              1634.4922
 Red. masses --      1.1022                 1.0659                 1.1173
 Frc consts  --      1.4015                 1.3613                 1.7587
 IR Inten    --     14.2500                10.2374                51.1846
  Atom  AN      X      Y      Z        X      Y      Z        X      Y      Z
     1   6    -0.00  -0.03   0.03     0.00  -0.03  -0.04     0.00  -0.00  -0.00
     2   6     0.05  -0.03   0.01    -0.02  -0.04  -0.02     0.01   0.00  -0.00
     3   6    -0.00  -0.00  -0.00     0.00   0.01   0.01     0.01  -0.00   0.00
     4   7    -0.01   0.00   0.00     0.00  -0.00  -0.00    -0.01   0.00   0.00
     5   8     0.00  -0.01  -0.00     0.00  -0.00   0.00     0.00  -0.00  -0.00
     6   6    -0.02   0.05  -0.00     0.00   0.03  -0.00    -0.03  -0.02   0.00
     7   7     0.00  -0.01  -0.01     0.00  -0.01   0.00    -0.01   0.05  -0.07
     8   1    -0.37  -0.23  -0.14     0.04   0.03   0.66     0.00   0.00   0.03
     9   1     0.40   0.33   0.12    -0.27   0.54   0.17    -0.03   0.01   0.00
    10   1    -0.17   0.46  -0.44     0.31  -0.10  -0.21     0.00  -0.01   0.01
    11   1    -0.11   0.02   0.05     0.06   0.05   0.00    -0.01   0.01   0.00
    12   1     0.05   0.00   0.02    -0.02   0.01   0.00     0.01  -0.00  -0.00
    13   1     0.02  -0.14   0.09    -0.05  -0.06   0.04     0.05   0.06  -0.03
    14   1     0.03   0.04  -0.03     0.02   0.04  -0.02     0.30  -0.60   0.22
    15   1    -0.04  -0.05   0.09    -0.02  -0.02   0.01     0.01   0.02   0.69
                     31                     32                     33
                      A                      A                      A
 Frequencies --   1742.1573              3060.7442              3077.4597
 Red. masses --      9.5947                 1.0852                 1.0370
 Frc consts  --     17.1576                 5.9896                 5.7865
 IR Inten    --     10.0959                 8.6450                16.9744
  Atom  AN      X      Y      Z        X      Y      Z        X      Y      Z
     1   6    -0.00  -0.01  -0.01     0.00  -0.00   0.00     0.05  -0.00  -0.02
     2   6    -0.07   0.01  -0.02    -0.01   0.03  -0.08    -0.00  -0.00   0.00
     3   6     0.64  -0.14   0.10    -0.00  -0.00  -0.00    -0.00   0.00  -0.00
     4   7    -0.50   0.16  -0.04     0.00  -0.00  -0.00     0.00   0.00   0.00
     5   8     0.02  -0.02  -0.01    -0.00   0.00   0.00     0.00  -0.00   0.00
     6   6     0.01   0.01   0.01     0.00   0.00   0.00    -0.00   0.00  -0.00
     7   7     0.00  -0.00   0.00    -0.00  -0.00   0.00    -0.00   0.00   0.00
     8   1     0.04   0.02  -0.01    -0.02   0.05  -0.00    -0.31   0.56  -0.03
     9   1     0.03   0.01  -0.00    -0.00   0.01  -0.03     0.03  -0.17   0.51
    10   1    -0.02  -0.01  -0.00    -0.02  -0.03  -0.02    -0.26  -0.36  -0.29
    11   1    -0.05  -0.11  -0.05     0.07  -0.35   0.93    -0.00   0.01  -0.03
    12   1    -0.28  -0.31  -0.25    -0.00   0.01   0.00     0.00  -0.00  -0.00
    13   1    -0.01   0.02   0.01    -0.00  -0.03  -0.06     0.00   0.00   0.01
    14   1    -0.03   0.08  -0.03     0.00  -0.00   0.00     0.00  -0.00  -0.00
    15   1    -0.01  -0.01  -0.08     0.00  -0.00  -0.00    -0.00   0.00   0.00
                     34                     35                     36
                      A                      A                      A
 Frequencies --   3147.0912              3166.1092              3177.0192
 Red. masses --      1.0907                 1.1041                 1.1045
 Frc consts  --      6.3649                 6.5212                 6.5682
 IR Inten    --     19.6686                13.9435                10.9517
  Atom  AN      X      Y      Z        X      Y      Z        X      Y      Z
     1   6     0.00  -0.00   0.00     0.01  -0.09   0.03    -0.03  -0.03  -0.08
     2   6    -0.00   0.00  -0.00     0.00  -0.00   0.00    -0.00   0.00  -0.00
     3   6     0.00  -0.00  -0.00     0.00   0.00  -0.00     0.00   0.00   0.00
     4   7     0.00   0.00   0.00    -0.00  -0.00   0.00     0.00  -0.00   0.00
     5   8    -0.00  -0.00   0.00     0.00   0.00  -0.00     0.00   0.00   0.00
     6   6     0.00  -0.04  -0.08    -0.00   0.00   0.00    -0.00  -0.00  -0.00
     7   7    -0.00   0.00   0.00     0.00  -0.00  -0.00    -0.00   0.00   0.00
     8   1    -0.01   0.01  -0.00    -0.37   0.65  -0.03    -0.03   0.05  -0.02
     9   1    -0.00   0.01  -0.02    -0.02   0.15  -0.49     0.02  -0.22   0.62
    10   1     0.00   0.00   0.00     0.21   0.26   0.22     0.38   0.51   0.39
    11   1     0.01  -0.02   0.06    -0.00   0.02  -0.04     0.00  -0.02   0.05
    12   1    -0.00   0.01   0.00     0.00  -0.00   0.00     0.00  -0.00  -0.00
    13   1    -0.04   0.44   0.89     0.00  -0.01  -0.02    -0.00   0.00   0.01
    14   1    -0.00  -0.01  -0.02    -0.00   0.00   0.00     0.00  -0.00  -0.00
    15   1     0.00  -0.00  -0.00     0.00   0.00  -0.00    -0.00  -0.00   0.00
                     37                     38                     39
                      A                      A                      A
 Frequencies --   3242.5635              3535.3859              3622.5575
 Red. masses --      1.0970                 1.0517                 1.0929
 Frc consts  --      6.7956                 7.7451                 8.4498
 IR Inten    --      0.9093                 8.5808                13.4536
  Atom  AN      X      Y      Z        X      Y      Z        X      Y      Z
     1   6     0.00  -0.00  -0.00     0.00   0.00  -0.00    -0.00   0.00  -0.00
     2   6     0.00   0.00   0.00     0.00  -0.00  -0.00    -0.00   0.00   0.00
     3   6     0.02  -0.08  -0.04     0.00   0.00   0.00     0.00   0.00   0.00
     4   7    -0.00   0.00  -0.00    -0.00   0.00   0.00     0.00   0.00  -0.00
     5   8    -0.00   0.00   0.00    -0.00  -0.00   0.00    -0.00   0.00  -0.00
     6   6    -0.00   0.00   0.00    -0.00  -0.00  -0.00     0.00  -0.00  -0.00
     7   7     0.00  -0.00  -0.00    -0.02   0.01  -0.05     0.03  -0.06  -0.04
     8   1    -0.00   0.00  -0.00    -0.00  -0.00   0.00     0.00  -0.00   0.00
     9   1    -0.00  -0.00   0.00     0.00  -0.00   0.00    -0.00  -0.00   0.00
    10   1    -0.00  -0.00   0.00    -0.00  -0.00  -0.00     0.00   0.00   0.00
    11   1    -0.00   0.00  -0.01    -0.00   0.00   0.00     0.00  -0.00  -0.00
    12   1    -0.24   0.88   0.40     0.00  -0.00  -0.00    -0.00  -0.00   0.00
    13   1     0.00  -0.00  -0.01     0.00   0.01   0.01    -0.00   0.01   0.01
    14   1     0.00   0.00   0.00     0.01   0.32   0.74     0.03   0.23   0.54
    15   1     0.00  -0.00   0.00     0.35  -0.47  -0.03    -0.50   0.63   0.02

 -------------------
 - Thermochemistry -
 -------------------
 Temperature   298.150 Kelvin.  Pressure   1.00000 Atm.
 Atom     1 has atomic number  6 and mass  12.00000
 Atom     2 has atomic number  6 and mass  12.00000
 Atom     3 has atomic number  6 and mass  12.00000
 Atom     4 has atomic number  7 and mass  14.00307
 Atom     5 has atomic number  8 and mass  15.99491
 Atom     6 has atomic number  6 and mass  12.00000
 Atom     7 has atomic number  7 and mass  14.00307
 Atom     8 has atomic number  1 and mass   1.00783
 Atom     9 has atomic number  1 and mass   1.00783
 Atom    10 has atomic number  1 and mass   1.00783
 Atom    11 has atomic number  1 and mass   1.00783
 Atom    12 has atomic number  1 and mass   1.00783
 Atom    13 has atomic number  1 and mass   1.00783
 Atom    14 has atomic number  1 and mass   1.00783
 Atom    15 has atomic number  1 and mass   1.00783
 Molecular mass:   100.06366 amu.
 Principal axes and moments of inertia in atomic units:
                           1         2         3
     Eigenvalues --   466.38967 595.96489 904.88773
           X            0.99367  -0.11233  -0.00227
           Y            0.11232   0.99365  -0.00628
           Z            0.00296   0.00599   0.99998
 This molecule is an asymmetric top.
 Rotational symmetry number  1.
 Warning -- assumption of classical behavior for rotation
           may cause significant error
 Rotational temperatures (Kelvin)      0.18571     0.14533     0.09572
 Rotational constants (GHZ):           3.86960     3.02827     1.99444
 Zero-point vibrational energy     334692.9 (Joules/Mol)
                                   79.99353 (Kcal/Mol)
 Warning -- explicit consideration of   8 degrees of freedom as
           vibrations may cause significant error
 Vibrational temperatures:    145.78   305.40   406.37   409.91   500.57
          (Kelvin)            623.93   740.76   849.52  1061.69  1172.72
                             1232.30  1251.14  1262.12  1355.81  1392.04
                             1426.30  1476.63  1591.88  1629.72  1685.31
                             1789.36  1802.74  1887.22  1906.80  1974.25
                             2021.11  2067.18  2113.65  2118.34  2351.67
                             2506.58  4403.73  4427.78  4527.96  4555.32
                             4571.02  4665.33  5086.63  5212.05
 
 Zero-point correction=                           0.127478 (Hartree/Particle)
 Thermal correction to Energy=                    0.134152
 Thermal correction to Enthalpy=                  0.135096
 Thermal correction to Gibbs Free Energy=         0.097066
 Sum of electronic and zero-point Energies=           -341.368465
 Sum of electronic and thermal Energies=              -341.361791
 Sum of electronic and thermal Enthalpies=            -341.360847
 Sum of electronic and thermal Free Energies=         -341.398877
 
                     E (Thermal)             CV                S
                      KCal/Mol        Cal/Mol-Kelvin    Cal/Mol-Kelvin
 Total                   84.182             24.941             80.041
 Electronic               0.000              0.000              0.000
 Translational            0.889              2.981             39.720
 Rotational               0.889              2.981             27.022
 Vibrational             82.404             18.980             13.299
 Vibration     1          0.604              1.948              3.429
 Vibration     2          0.643              1.822              2.024
 Vibration     3          0.681              1.706              1.519
 Vibration     4          0.683              1.702              1.504
 Vibration     5          0.726              1.580              1.176
 Vibration     6          0.794              1.397              0.847
 Vibration     7          0.870              1.217              0.622
 Vibration     8          0.948              1.052              0.466
                       Q            Log10(Q)             Ln(Q)
 Total Bot       0.225251D-44        -44.647332       -102.804282
 Total V=0       0.973495D+14         13.988334         32.209329
 Vib (Bot)       0.318912D-57        -57.496329       -132.390189
 Vib (Bot)    1  0.202491D+01          0.306406          0.705526
 Vib (Bot)    2  0.934868D+00         -0.029250         -0.067350
 Vib (Bot)    3  0.679830D+00         -0.167600         -0.385912
 Vib (Bot)    4  0.673084D+00         -0.171931         -0.395885
 Vib (Bot)    5  0.531024D+00         -0.274886         -0.632948
 Vib (Bot)    6  0.400649D+00         -0.397236         -0.914670
 Vib (Bot)    7  0.314990D+00         -0.501703         -1.155213
 Vib (Bot)    8  0.255373D+00         -0.592825         -1.365031
 Vib (V=0)       0.137828D+02          1.139338          2.623422
 Vib (V=0)    1  0.258573D+01          0.412583          0.950008
 Vib (V=0)    2  0.156018D+01          0.193174          0.444800
 Vib (V=0)    3  0.134390D+01          0.128367          0.295577
 Vib (V=0)    4  0.133848D+01          0.126611          0.291532
 Vib (V=0)    5  0.122937D+01          0.089684          0.206505
 Vib (V=0)    6  0.114072D+01          0.057178          0.131658
 Vib (V=0)    7  0.109095D+01          0.037804          0.087047
 Vib (V=0)    8  0.106144D+01          0.025896          0.059627
 Electronic      0.100000D+01          0.000000          0.000000
 Translational   0.393431D+08          7.594868         17.487831
 Rotational      0.179526D+06          5.254128         12.098076
 ***** Axes restored to original set *****
 -------------------------------------------------------------------
 Center     Atomic                   Forces (Hartrees/Bohr)
 Number     Number              X              Y              Z
 -------------------------------------------------------------------
      1        6           0.000020721   -0.000019706    0.000019151
      2        6          -0.000064358    0.000002996   -0.000005158
      3        6           0.000061508   -0.000006122   -0.000013668
      4        7          -0.000050536    0.000028027    0.000006111
      5        8          -0.000004000   -0.000044581   -0.000012749
      6        6           0.000058728    0.000017211    0.000026913
      7        7           0.000056862    0.000015612    0.000023937
      8        1          -0.000006014    0.000003502   -0.000014414
      9        1          -0.000002922   -0.000000236   -0.000014675
     10        1           0.000017365    0.000005469   -0.000000122
     11        1          -0.000013331   -0.000006230    0.000008476
     12        1          -0.000012386   -0.000004487    0.000005864
     13        1           0.000005130    0.000008109    0.000008776
     14        1          -0.000039643    0.000012956   -0.000021827
     15        1          -0.000027125   -0.000012520   -0.000016616
 -------------------------------------------------------------------
 Cartesian Forces:  Max     0.000064358 RMS     0.000025075

 GradGradGradGradGradGradGradGradGradGradGradGradGradGradGradGradGradGrad
 Berny optimization.
 Search for a local minimum.
 Step number   1 out of a maximum of    2
 All quantities printed in internal units (Hartrees-Bohrs-Radians)
 Second derivative matrix not updated -- analytic derivatives used.
 ITU=  0
     Eigenvalues ---    0.00124   0.00246   0.00459   0.00825   0.01226
     Eigenvalues ---    0.02148   0.02845   0.04219   0.04495   0.04913
     Eigenvalues ---    0.05862   0.06652   0.07421   0.07962   0.09211
     Eigenvalues ---    0.09627   0.10283   0.12193   0.13657   0.17245
     Eigenvalues ---    0.19160   0.20818   0.21999   0.27382   0.29894
     Eigenvalues ---    0.44932   0.46380   0.51606   0.57369   0.62301
     Eigenvalues ---    0.75254   0.79266   0.82044   0.85296   0.87530
     Eigenvalues ---    0.97318   0.99852   1.09651   1.53390
 Angle between quadratic step and forces=  78.75 degrees.
 Linear search not attempted -- first point.
 B after Tr=     0.000092    0.000074   -0.000023
         Rot=    1.000000    0.000022   -0.000008   -0.000044 Ang=   0.01 deg.
 Variable       Old X    -DE/DX   Delta X   Delta X   Delta X     New X
                                 (Linear)    (Quad)   (Total)
    X1       -1.85454   0.00002   0.00000   0.00044   0.00043  -1.85411
    Y1        1.53072  -0.00002   0.00000  -0.00061  -0.00061   1.53011
    Z1        1.99780   0.00002   0.00000   0.00023   0.00017   1.99796
    X2       -1.24419  -0.00006   0.00000  -0.00021  -0.00016  -1.24435
    Y2        0.39996   0.00000   0.00000  -0.00004  -0.00010   0.39986
    Z2       -0.57644  -0.00001   0.00000  -0.00018  -0.00020  -0.57665
    X3       -1.72666   0.00006   0.00000   0.00022   0.00051  -1.72615
    Y3       -2.39294  -0.00001   0.00000  -0.00011  -0.00022  -2.39316
    Z3       -0.85776  -0.00001   0.00000  -0.00001   0.00010  -0.85766
    X4       -0.04378  -0.00005   0.00000   0.00031   0.00068  -0.04310
    Y4       -3.54624   0.00003   0.00000  -0.00011  -0.00013  -3.54637
    Z4       -2.12808   0.00001   0.00000   0.00024   0.00038  -2.12770
    X5        1.80029  -0.00000   0.00000   0.00038   0.00059   1.80088
    Y5       -1.85782  -0.00004   0.00000  -0.00026  -0.00015  -1.85797
    Z5       -2.84204  -0.00001   0.00000   0.00031   0.00034  -2.84170
    X6        1.55126   0.00006   0.00000  -0.00011  -0.00008   1.55119
    Y6        0.43915   0.00002   0.00000   0.00037   0.00052   0.43967
    Z6       -1.37804   0.00003   0.00000  -0.00044  -0.00051  -1.37855
    X7        3.24440   0.00006   0.00000  -0.00019  -0.00013   3.24427
    Y7        0.53297   0.00002   0.00000   0.00141   0.00180   0.53478
    Z7        0.71549   0.00002   0.00000  -0.00043  -0.00053   0.71496
    X8       -3.89292  -0.00001   0.00000  -0.00005  -0.00005  -3.89297
    Y8        1.40335   0.00000   0.00000   0.00291   0.00274   1.40609
    Z8        2.37426  -0.00001   0.00000  -0.00121  -0.00123   2.37303
    X9       -0.85075  -0.00000   0.00000  -0.00243  -0.00233  -0.85309
    Y9        0.54467  -0.00000   0.00000  -0.00365  -0.00350   0.54117
    Z9        3.52193  -0.00001   0.00000   0.00012   0.00009   3.52202
   X10       -1.29858   0.00002   0.00000   0.00436   0.00417  -1.29441
   Y10        3.52783   0.00001   0.00000  -0.00174  -0.00169   3.52614
   Z10        2.07139  -0.00000   0.00000   0.00187   0.00172   2.07310
   X11       -2.36824  -0.00001   0.00000  -0.00085  -0.00091  -2.36915
   Y11        1.37568  -0.00001   0.00000  -0.00006  -0.00028   1.37540
   Z11       -2.03746   0.00001   0.00000   0.00034   0.00029  -2.03717
   X12       -3.36040  -0.00001   0.00000   0.00020   0.00060  -3.35980
   Y12       -3.43399  -0.00000   0.00000  -0.00017  -0.00040  -3.43439
   Z12       -0.15053   0.00001   0.00000  -0.00002   0.00016  -0.15037
   X13        1.99594   0.00001   0.00000  -0.00042  -0.00054   1.99540
   Y13        1.99048   0.00001   0.00000  -0.00001   0.00012   1.99061
   Z13       -2.67966   0.00001   0.00000  -0.00102  -0.00117  -2.68083
   X14        2.98350  -0.00004   0.00000  -0.00262  -0.00241   2.98108
   Y14       -0.98746   0.00001   0.00000   0.00315   0.00357  -0.98389
   Z14        1.87004  -0.00002   0.00000   0.00124   0.00122   1.87126
   X15        5.06470  -0.00003   0.00000  -0.00042  -0.00037   5.06433
   Y15        0.47364  -0.00001   0.00000  -0.00220  -0.00167   0.47196
   Z15        0.09892  -0.00002   0.00000  -0.00069  -0.00081   0.09811
         Item               Value     Threshold  Converged?
 Maximum Force            0.000064     0.000450     YES
 RMS     Force            0.000025     0.000300     YES
 Maximum Displacement     0.004170     0.001800     NO 
 RMS     Displacement     0.001357     0.001200     NO 
 Predicted change in Energy=-1.349899D-07
 GradGradGradGradGradGradGradGradGradGradGradGradGradGradGradGradGradGrad


 ----------------------------------------------------------------------

 Electric dipole moment (input orientation):
 (Debye = 10**-18 statcoulomb cm , SI units = C m)
                  (au)            (Debye)         (10**-30 SI)
   Tot        0.100432D+01      0.255273D+01      0.851498D+01
   x         -0.346311D+00     -0.880234D+00     -0.293615D+01
   y          0.693146D+00      0.176180D+01      0.587674D+01
   z          0.638964D+00      0.162409D+01      0.541736D+01

 Dipole polarizability, Alpha (input orientation).
 (esu units = cm**3 , SI units = C**2 m**2 J**-1)
 Alpha(0;0):
               (au)            (10**-24 esu)      (10**-40 SI)
   iso        0.547870D+02      0.811860D+01      0.903316D+01
   aniso      0.146482D+02      0.217064D+01      0.241516D+01
   xx         0.609783D+02      0.903605D+01      0.100540D+02
   yx         0.193239D+01      0.286351D+00      0.318608D+00
   yy         0.531961D+02      0.788285D+01      0.877085D+01
   zx        -0.532296D+01     -0.788781D+00     -0.877637D+00
   zy         0.290552D+01      0.430554D+00      0.479056D+00
   zz         0.501866D+02      0.743689D+01      0.827466D+01

 ----------------------------------------------------------------------

 Dipole orientation:
     6         -0.80825012         -0.56344173          2.96696450
     6         -1.29437603          0.50040103          0.33832168
     6         -2.24500839         -1.35546083         -1.60185355
     7         -1.29019867         -1.05151830         -3.78630664
     8          0.41925187          0.90634259         -3.71112963
     6          1.02723064          1.48800423         -1.10855474
     7          3.33286559          0.35590357         -0.29569323
     1         -2.58722084         -1.21003873          3.82144792
     1          0.50472570         -2.16834566          2.90997693
     1          0.02315577          0.88235206          4.20041575
     1         -2.69861831          2.03692523          0.46980015
     1         -3.66757450         -2.81917488         -1.30705558
     1          1.21640700          3.55073884         -1.01932612
     1          3.26789602         -1.55669052         -0.52053189
     1          4.79965079          1.00412828         -1.35659346

 Electric dipole moment (dipole orientation):
 (Debye = 10**-18 statcoulomb cm , SI units = C m)
                  (au)            (Debye)         (10**-30 SI)
   Tot        0.100432D+01      0.255273D+01      0.851498D+01
   x          0.000000D+00      0.000000D+00      0.000000D+00
   y          0.000000D+00      0.000000D+00      0.000000D+00
   z          0.100432D+01      0.255273D+01      0.851498D+01

 Dipole polarizability, Alpha (dipole orientation).
 (esu units = cm**3 , SI units = C**2 m**2 J**-1)
 Alpha(0;0):
               (au)            (10**-24 esu)      (10**-40 SI)
   iso        0.547870D+02      0.811860D+01      0.903316D+01
   aniso      0.146482D+02      0.217064D+01      0.241516D+01
   xx         0.569390D+02      0.843750D+01      0.938798D+01
   yx         0.663537D+01      0.983260D+00      0.109402D+01
   yy         0.505514D+02      0.749094D+01      0.833479D+01
   zx        -0.355605D+01     -0.526952D+00     -0.586314D+00
   zy        -0.118016D+01     -0.174882D+00     -0.194582D+00
   zz         0.568706D+02      0.842736D+01      0.937670D+01

 ----------------------------------------------------------------------
 Unable to Open any file for archive entry.
 1\1\GINC-R1I3N10\Freq\UM062X\def2SVP\C4H8N2O1\UZG38MN\11-Sep-2023\0\\#
  um062x Def2SVP Freq\\p1_C4H8N2O_hess_g16\\0,1\C,-0.98138,0.810023,1.0
 57188\C,-0.658399,0.21165,-0.30504\C,-0.91371,-1.266289,-0.453907\N,-0
 .023169,-1.876588,-1.126129\O,0.952671,-0.983116,-1.503942\C,0.820893,
 0.232386,-0.729226\N,1.716861,0.282038,0.378619\H,-2.060047,0.742619,1
 .256406\H,-0.4502,0.288226,1.863725\H,-0.687181,1.866849,1.096131\H,-1
 .253221,0.727977,-1.078178\H,-1.778246,-1.817191,-0.079658\H,1.056208,
 1.053319,-1.418017\H,1.578798,-0.522541,0.989584\H,2.680122,0.250637,0
 .052347\\Version=ES64L-G16RevC.01\State=1-A\HF=-341.495943\S2=0.\S2-1=
 0.\S2A=0.\RMSD=3.810e-09\RMSF=2.507e-05\ZeroPoint=0.1274778\Thermal=0.
 1341521\ETot=-341.361791\HTot=-341.3608468\GTot=-341.3988768\Dipole=-0
 .3463109,0.6931463,0.6389643\DipoleDeriv=0.1059213,-0.0098468,-0.00491
 28,0.0161675,0.0372558,0.0027302,-0.0269817,0.0204344,0.0543336,-0.111
 1366,-0.0716196,0.0742555,-0.0759844,-0.056661,-0.0383031,0.0115255,0.
 0145584,0.156144,-0.0049525,0.0327487,-0.0555206,0.1119205,0.3349851,0
 .0635672,0.0646687,0.0213935,-0.1123935,0.3977705,0.1212862,-0.2181736
 ,0.4180493,-0.2448606,-0.2617665,-0.2817376,-0.0687457,-0.0956571,-0.7
 465839,0.0050186,0.1789127,-0.7059548,-0.5816778,0.0179502,-0.0096059,
 -0.1772005,-0.5180733,0.6214733,0.045522,0.2576242,0.2412089,0.5954118
 ,0.0787781,0.5166446,0.2310984,0.6958187,-0.5873116,-0.0491902,-0.2195
 469,-0.1015829,-0.4595734,-0.1124138,-0.3615913,-0.2330425,-0.5908375,
 -0.1200238,0.0055024,0.0586478,-0.028695,0.0718367,-0.0081163,0.021175
 4,-0.0256633,0.0332136,0.0358694,0.0470359,-0.0716532,0.0494364,0.0092
 931,0.0670828,-0.0357641,0.0185784,-0.0404436,0.06882,-0.0510384,0.001
 7954,-0.0158816,-0.0860271,-0.0377891,0.0289688,-0.0073491,0.0331859,0
 .0049643,0.0224244,-0.0582673,0.0715212,0.0017545,0.0003789,-0.04711,0
 .0365909,-0.0532662,0.0383864,-0.0365791,0.038743,-0.0495594,0.0382375
 ,0.0013622,0.0392984,0.0144156,0.1100439,0.0151254,-0.0293262,0.011148
 2,-0.0626651,-0.0408467,0.0591633,-0.0114409,0.0659844,-0.028952,0.148
 4657,-0.0550333,-0.0025536,-0.0168159,0.1236098,0.1253152,0.0096303,0.
 0478393,0.2099761,0.133212,0.0230953,0.0095012,0.1488354,0.2572623,0.0
 420607,0.0823199,0.0411077,0.1469074\Polar=60.9782756,1.9323902,53.196
 1025,-5.3229585,2.9055215,50.1866445\Quadrupole=4.1352134,-2.7442251,-
 1.3909883,0.4768134,0.3437175,-4.164659\PG=C01 [X(C4H8N2O1)]\NImag=0\\
 0.58632407,0.00944768,0.57628978,0.02140616,-0.03447189,0.51423179,-0.
 08620683,0.00775746,0.02432024,0.50465971,0.00777921,-0.09727847,-0.04
 831837,-0.06710074,0.52255418,0.02310534,-0.04865155,-0.19355767,0.022
 88308,0.01040716,0.55987885,0.00252326,0.01041688,-0.00017337,-0.09140
 934,-0.02408727,0.00123215,0.75794997,0.00110590,-0.01264277,-0.007359
 28,-0.02872024,-0.19407628,-0.00297657,0.01203481,0.61839756,-0.009672
 82,-0.03448936,-0.00019679,0.00248277,-0.00508339,-0.07845391,-0.35522
 427,0.09895612,0.37954531,-0.00166269,0.00036130,-0.00113438,0.0083123
 0,0.02257179,0.02274935,-0.34020390,0.20936037,0.21098649,0.50748152,-
 0.00643000,-0.00738489,0.00422289,0.01788974,-0.03650527,-0.02322277,0
 .15559062,-0.24575009,-0.14283945,-0.11270622,0.47682411,0.00249227,0.
 00309174,-0.00007678,0.01599560,-0.02726394,0.01606120,0.20208360,-0.1
 7199870,-0.21257408,-0.27740883,0.18035045,0.27844185,-0.00503468,-0.0
 0202221,-0.00179698,-0.01076346,0.01577140,0.01797493,-0.08172522,-0.0
 4036078,0.05338728,-0.15528063,-0.02563164,0.06479131,0.33538080,0.006
 44077,0.00154208,-0.00002195,0.01561916,-0.02067049,-0.02224195,-0.022
 93728,-0.00402541,0.01359986,-0.09383335,-0.12389567,0.02519671,0.0754
 9429,0.28596472,0.00325443,-0.00139355,0.00049668,0.01220382,-0.011126
 03,-0.01906832,0.05384758,0.01756387,-0.01613151,0.03875808,-0.0184263
 0,-0.07762261,-0.13893077,0.06937564,0.22598604,-0.00387047,0.00329904
 ,0.00945206,-0.16911981,-0.00789615,0.02107672,-0.01804474,-0.03210246
 ,0.00198869,0.00216441,-0.01496790,-0.01189502,-0.09747052,0.02422662,
 0.03636559,0.55529532,0.01330225,0.00011570,-0.00216740,-0.00165412,-0
 .07571439,0.00558733,-0.02500948,-0.00698151,-0.00065992,-0.04200164,-
 0.07197902,0.00409532,0.00940735,-0.10224875,-0.02111572,0.07414892,0.
 54271331,0.02587547,0.00283147,-0.00467914,0.02288930,0.01074949,-0.08
 940681,0.01172056,0.01598679,-0.00388830,-0.01184883,-0.00492606,0.014
 04635,0.02380533,-0.02886852,-0.09912112,0.00157095,-0.15660933,0.5483
 0289,-0.00171856,-0.00066212,-0.00072751,-0.03171235,0.00002074,-0.028
 75110,-0.00114653,0.00339679,-0.00046762,0.00067492,-0.00198610,0.0006
 6276,0.00562225,-0.01138713,-0.01426836,-0.17515860,-0.01865985,-0.089
 18290,0.67360211,0.00150570,-0.00055086,-0.00116133,-0.00286817,0.0020
 7932,-0.00366687,-0.00037436,0.00019919,0.00237655,0.00737233,0.006405
 78,-0.00615243,-0.02928134,-0.01554053,-0.04026650,0.00689647,-0.07638
 080,0.04875866,0.04328705,0.38241005,0.00288515,0.00029670,-0.00186874
 ,-0.00355867,-0.00247418,0.00680596,-0.00311381,0.00058418,0.00241316,
 0.00853977,0.00452468,-0.00644717,-0.02628214,-0.03916268,-0.03460014,
 -0.06604113,0.02065320,-0.18984548,-0.03181922,-0.21517196,0.49751008,
 -0.31502390,-0.01792380,0.04642510,-0.00409976,-0.00043457,-0.00032460
 ,0.00032941,-0.00056876,-0.00023328,-0.00030628,0.00010806,0.00018007,
 0.00014066,0.00057943,0.00017079,0.00106725,-0.00018772,-0.00040259,-0
 .00051726,0.00007525,0.00087503,0.33603316,-0.01838893,-0.04824333,0.0
 0381672,0.01388863,-0.00039395,-0.00206962,0.00084155,0.00107041,0.000
 85714,0.00035403,0.00067718,-0.00034257,0.00025455,-0.00123041,-0.0003
 8337,-0.00061698,-0.00019908,-0.00189768,-0.00024048,0.00041809,-0.000
 16561,0.01892854,0.04643753,0.04513981,0.00385980,-0.05375303,0.030913
 27,0.00236949,-0.00629931,-0.00030997,0.00108358,0.00130399,0.00042405
 ,0.00076584,-0.00040979,0.00178445,-0.00154806,-0.00070430,-0.00267502
 ,-0.00263081,-0.00468301,-0.00098130,0.00023689,0.00096005,-0.05153482
 ,-0.00138564,0.05875697,-0.11296782,0.06804611,-0.10097835,0.00414646,
 -0.00454772,0.00587628,0.00035456,-0.00008275,-0.00045628,0.00032277,0
 .00008833,-0.00020304,-0.00022786,-0.00084687,-0.00041608,0.00031074,-
 0.00028348,0.00075338,-0.00164387,0.00023608,0.00038121,-0.01226177,0.
 01509166,-0.02215818,0.11881130,0.06712677,-0.11257282,0.09918506,-0.0
 0844549,0.00673571,-0.01120050,-0.00092173,0.00144548,0.00056963,0.000
 69849,0.00064775,0.00001627,-0.00047371,-0.00064407,-0.00017898,0.0006
 8218,0.00058015,0.00129751,0.00082516,-0.00043771,-0.00120368,-0.00190
 684,0.00045029,-0.00303198,-0.07415224,0.11631388,-0.09875057,0.098289
 47,-0.19300482,-0.01366741,0.01359880,-0.02064207,-0.00006998,0.001675
 36,0.00159222,0.00009240,-0.00058656,-0.00036468,0.00039767,0.00032215
 ,0.00064305,-0.00259235,0.00014450,-0.00086622,-0.00035680,0.00000899,
 0.00138386,0.00344214,-0.00411787,0.00502844,0.10734719,-0.10373726,0.
 20947286,-0.06582324,-0.07482189,-0.00229843,0.00147859,0.00859737,0.0
 0043488,-0.00000094,0.00002004,0.00195753,0.00029049,0.00095788,-0.000
 48368,-0.00014206,-0.00074286,-0.00000283,0.00056598,0.00117681,0.0001
 6219,0.00023076,-0.00032146,-0.00055174,-0.00600909,-0.02950742,-0.001
 17005,0.00387803,0.01554245,0.00133422,0.06547728,-0.07351591,-0.30807
 599,-0.00566183,-0.00210154,-0.01001565,0.00004850,0.00080095,0.001316
 79,-0.00278616,-0.00061707,-0.00126199,0.00057828,0.00051261,0.0010604
 6,0.00004091,-0.00123602,-0.00056418,-0.00090830,-0.00006928,0.0007986
 9,0.00092860,0.00092290,0.00076726,0.00027186,-0.00458067,-0.01240844,
 -0.00144822,0.07957593,0.32789940,-0.00171774,-0.00426729,-0.04609659,
 -0.00882579,-0.03000108,-0.00052294,0.00247239,0.00013964,-0.00557739,
 -0.00000652,-0.00297648,0.00054777,-0.00012418,0.00106362,-0.00015987,
 -0.00051902,-0.00059273,0.00084111,0.00020104,0.00028343,-0.00021918,0
 .00068449,0.00539248,-0.00115919,0.00750585,0.02146915,0.00103910,0.00
 084003,0.00904457,0.05027906,0.00421995,-0.00346386,0.00699151,-0.1224
 2594,0.06499480,-0.09726727,0.00636850,-0.00226787,0.00730379,-0.00117
 398,-0.00062941,-0.00152228,0.00097218,0.00227274,0.00246304,-0.014872
 30,0.01112408,-0.02500202,-0.00576371,-0.00026475,0.00345122,0.0005720
 3,-0.00044910,-0.00006528,0.00018707,0.00085169,0.00170693,0.00000271,
 0.00009514,-0.00057190,0.13246866,-0.00763827,0.00733157,-0.01053480,0
 .07087135,-0.10264238,0.09075169,0.02069044,-0.02003114,0.01916849,-0.
 00728834,-0.00385089,-0.00300455,0.00169603,0.00317923,0.00095360,-0.0
 0305400,0.00016882,-0.00249704,-0.00152356,0.00106092,0.00056935,-0.00
 000755,0.00043176,0.00076796,0.00051353,-0.00039445,-0.00297115,-0.000
 47397,0.00053887,0.00043399,-0.07240035,0.11393396,-0.01501867,0.01340
 240,-0.02275086,-0.10003616,0.08545455,-0.17274742,0.00266579,0.000552
 33,0.00319232,0.00073281,-0.00178068,-0.00081502,-0.00197450,0.0005873
 7,-0.00109638,0.00556860,-0.00330052,0.00625201,0.00117533,-0.00022933
 ,0.00067354,0.00028535,0.00047537,0.00098881,0.00185496,-0.00305398,-0
 .00457184,-0.00032673,-0.00013659,0.00115130,0.10427029,-0.09196786,0.
 18853752,0.00032909,-0.00008290,-0.00007608,0.00314473,0.00194896,0.00
 062662,-0.23069439,-0.12130286,0.08615136,-0.01953627,-0.01083559,0.00
 409399,0.00175281,0.00019514,0.00590108,0.00066348,0.00178764,0.001570
 06,0.00006341,0.00010788,0.00027394,-0.00014072,-0.00022011,-0.0001406
 9,-0.00006479,-0.00013734,-0.00010274,-0.00006837,0.00005767,-0.000086
 32,-0.00053834,-0.00073869,-0.00016392,0.24482688,-0.00023433,0.001452
 70,0.00085889,-0.01855255,-0.00223111,0.00802740,-0.13037537,-0.138086
 11,0.05186576,0.01480160,0.01138137,-0.00377635,0.00435247,0.00296701,
 -0.00496842,0.00133409,-0.00616306,-0.00096236,-0.00061304,0.00032020,
 0.00013043,0.00050841,-0.00029578,-0.00041703,-0.00003388,-0.00006217,
 -0.00031371,0.00030140,0.00001832,-0.00015813,0.00039403,-0.00029946,0
 .00039247,0.12933663,0.13045395,-0.00000356,0.00146185,0.00085081,-0.0
 0413895,-0.00364157,0.00367316,0.08409014,0.04669527,-0.07020814,0.009
 97071,0.01164041,-0.01176958,0.00749802,-0.00197533,0.00842379,0.00114
 955,-0.00384358,-0.00078428,-0.00011867,0.00061219,0.00120540,0.000277
 67,-0.00000464,0.00003894,-0.00015583,0.00006942,-0.00025414,0.0000466
 1,0.00018114,0.00000101,-0.00033069,-0.00052670,0.00002422,-0.09801049
 ,-0.05078401,0.06884821,-0.00151174,-0.00070699,-0.00041744,-0.0061376
 0,-0.01935404,0.01460050,-0.00367337,-0.00098555,0.00138167,-0.0018162
 1,-0.00051466,0.00111839,0.00408892,0.00575410,-0.00135093,-0.06498270
 ,-0.05059019,0.04191962,0.00422044,0.01697314,-0.02060431,-0.00014483,
 0.00036771,0.00039843,0.00002032,-0.00005300,-0.00000453,0.00007822,0.
 00026910,0.00011732,0.00092502,-0.00018815,0.00039487,0.00034728,-0.00
 110835,-0.00002051,0.06984068,-0.00022540,0.00029874,0.00003633,0.0014
 4467,0.00577667,-0.00220036,0.00221628,-0.00092373,-0.00095656,0.00305
 936,-0.00368533,-0.00153089,-0.01222130,-0.03058157,0.00793899,-0.0427
 5203,-0.19721264,0.13326339,0.00050182,0.00360336,-0.00055990,0.000047
 24,-0.00009772,0.00010235,-0.00003059,-0.00003473,0.00003548,-0.000132
 08,-0.00011170,0.00019544,-0.00045959,0.00055161,-0.00027418,-0.000176
 17,0.00051248,0.00012430,0.04932875,0.22007465,0.00050544,0.00040378,0
 .00019684,0.00030675,0.00578230,-0.00217091,0.00133179,-0.00160665,-0.
 00064966,0.00038065,-0.00413374,0.00019727,-0.00598231,-0.01994451,0.0
 0855610,0.04069063,0.13618172,-0.15920619,0.00174396,0.02017308,-0.023
 66578,0.00012055,-0.00022563,-0.00009064,-0.00017488,-0.00002006,0.000
 22292,0.00003707,-0.00011458,-0.00013706,-0.00047903,-0.00070506,0.001
 09188,-0.00017016,0.00043837,0.00003919,-0.03347489,-0.13621740,0.1771
 0256,-0.00007611,0.00057732,-0.00040664,0.00035999,0.00031097,-0.00034
 597,-0.00105524,0.00003582,0.00058255,0.00152524,0.00001849,-0.0007671
 7,-0.00047754,-0.00242373,0.00069430,0.00746965,0.02539783,-0.01355023
 ,-0.07045451,-0.04363422,0.02192700,0.00028594,-0.00032270,0.00029984,
 -0.00092791,0.00040866,0.00122643,0.00005832,-0.00017492,0.00002618,0.
 00026023,-0.00003728,0.00031147,-0.00006582,-0.00002509,-0.00003819,-0
 .00234169,-0.00052958,-0.00467308,0.06869106,-0.00033819,-0.00066758,0
 .00109358,-0.00018029,0.00019625,0.00075693,-0.00034079,0.00070494,-0.
 00006676,-0.00059197,-0.00057364,-0.00003923,0.00176355,0.00181728,-0.
 00017804,-0.00256402,-0.00256522,-0.00782467,-0.05261087,-0.27883136,0
 .21877356,-0.00030891,0.00022772,-0.00050198,0.00062534,0.00057485,-0.
 00094709,0.00011961,-0.00005807,0.00002097,0.00002784,-0.00012732,-0.0
 0020556,0.00008505,-0.00012894,0.00008271,0.00017390,0.00211876,0.0003
 8488,0.05058262,0.27886959,-0.00022627,-0.00080705,0.00099201,0.000233
 63,-0.00045108,0.00083404,-0.00080962,0.00019268,-0.00039962,-0.001809
 72,-0.00151697,0.00049638,0.00404005,0.00198835,0.00359675,0.00164138,
 0.02562418,-0.02505688,0.02699266,0.17353520,-0.16085761,-0.00017449,0
 .00017772,-0.00029600,0.00074299,0.00008916,-0.00031445,0.00012867,-0.
 00009255,-0.00004170,0.00021740,-0.00028071,-0.00009309,0.00014667,-0.
 00012776,0.00004029,-0.00435327,-0.00021747,-0.00196431,-0.02726791,-0
 .20665836,0.19030046,0.00049969,-0.00022202,-0.00058589,-0.00022668,0.
 00142524,-0.00387092,0.00042797,0.00043752,-0.00016787,-0.00079169,-0.
 00095161,0.00086204,0.00316436,0.00158899,0.00131023,-0.02401769,0.002
 04162,0.00971972,-0.39629850,0.00029039,0.11363770,0.00007515,0.000019
 06,0.00007547,0.00006278,-0.00004506,-0.00000258,-0.00001666,0.0000611
 1,0.00000417,-0.00120209,-0.00042119,0.00026052,-0.00001898,-0.0000860
 2,-0.00021581,0.00108725,-0.00007139,-0.00016248,-0.00325162,0.0035571
 3,0.00049783,0.42050670,0.00006275,0.00038613,0.00048338,0.00215214,0.
 00218586,0.00065118,0.00145475,-0.00061733,-0.00051194,-0.00154070,-0.
 00104939,0.00077990,0.00073873,0.00230613,0.00216391,-0.00539777,-0.00
 356933,-0.00839337,0.03972085,-0.02555434,0.01227732,0.00016834,-0.000
 01997,0.00005772,-0.00004285,-0.00019372,0.00004709,-0.00029181,0.0000
 9623,-0.00004760,0.00017461,0.00014889,0.00008421,-0.00002531,0.000160
 60,-0.00009145,0.00063423,-0.00028884,-0.00039650,-0.03018418,-0.00155
 727,0.00854466,-0.00762378,0.02756635,0.00072556,0.00044349,-0.0007837
 1,-0.00200148,-0.00000214,-0.00438386,0.00025701,0.00051139,0.00003239
 ,-0.00042604,-0.00109527,0.00028889,0.00141184,0.00162929,0.00080184,-
 0.03578163,-0.00136624,0.00809505,0.13589774,0.02066343,-0.09344795,0.
 00020860,-0.00012679,0.00031809,0.00008078,-0.00026976,0.00063577,-0.0
 0010773,0.00005436,0.00005456,-0.00116570,-0.00015721,0.00016302,-0.00
 001333,-0.00020556,-0.00012888,0.00029509,0.00026047,0.00047779,0.0219
 8141,-0.00469093,-0.00723627,-0.12136212,-0.01564852,0.09511327\\-0.00
 002072,0.00001971,-0.00001915,0.00006436,-0.00000300,0.00000516,-0.000
 06151,0.00000612,0.00001367,0.00005054,-0.00002803,-0.00000611,0.00000
 400,0.00004458,0.00001275,-0.00005873,-0.00001721,-0.00002691,-0.00005
 686,-0.00001561,-0.00002394,0.00000601,-0.00000350,0.00001441,0.000002
 92,0.00000024,0.00001468,-0.00001737,-0.00000547,0.00000012,0.00001333
 ,0.00000623,-0.00000848,0.00001239,0.00000449,-0.00000586,-0.00000513,
 -0.00000811,-0.00000878,0.00003964,-0.00001296,0.00002183,0.00002713,0
 .00001252,0.00001662\\\@
 The archive entry for this job was punched.


 Statistics are no substitute for judgment.
                            -- Henry Clay
 Job cpu time:       0 days  0 hours 20 minutes 24.6 seconds.
 Elapsed time:       0 days  0 hours  0 minutes 51.8 seconds.
 File lengths (MBytes):  RWF=   1312 Int=      0 D2E=      0 Chk=     32 Scr=     32
 Normal termination of Gaussian 16 at Mon Sep 11 12:24:09 2023.
