 Entering Gaussian System, Link 0=/gpfslocalsup/prod/g16/rev-C01/g16/g16
 Input=r0_C6H13NO_hess_g16.com
 Output=r0_C6H13NO_hess_g16.log
 Initial command:
 /gpfslocalsup/prod/g16/rev-C01/g16/l1.exe "/gpfsssd/jobscratch/uzg38mn_1841822/Gau-1792195.inp" -scrdir="/gpfsssd/jobscratch/uzg38mn_1841822/"
 Entering Link 1 = /gpfslocalsup/prod/g16/rev-C01/g16/l1.exe PID=   1792196.
  
 Copyright (c) 1988-2019, Gaussian, Inc.  All Rights Reserved.
  
 This is part of the Gaussian(R) 16 program.  It is based on
 the Gaussian(R) 09 system (copyright 2009, Gaussian, Inc.),
 the Gaussian(R) 03 system (copyright 2003, Gaussian, Inc.),
 the Gaussian(R) 98 system (copyright 1998, Gaussian, Inc.),
 the Gaussian(R) 94 system (copyright 1995, Gaussian, Inc.),
 the Gaussian 92(TM) system (copyright 1992, Gaussian, Inc.),
 the Gaussian 90(TM) system (copyright 1990, Gaussian, Inc.),
 the Gaussian 88(TM) system (copyright 1988, Gaussian, Inc.),
 the Gaussian 86(TM) system (copyright 1986, Carnegie Mellon
 University), and the Gaussian 82(TM) system (copyright 1983,
 Carnegie Mellon University). Gaussian is a federally registered
 trademark of Gaussian, Inc.
  
 This software contains proprietary and confidential information,
 including trade secrets, belonging to Gaussian, Inc.
  
 This software is provided under written license and may be
 used, copied, transmitted, or stored only in accord with that
 written license.
  
 The following legend is applicable only to US Government
 contracts under FAR:
  
                    RESTRICTED RIGHTS LEGEND
  
 Use, reproduction and disclosure by the US Government is
 subject to restrictions as set forth in subparagraphs (a)
 and (c) of the Commercial Computer Software - Restricted
 Rights clause in FAR 52.227-19.
  
 Gaussian, Inc.
 340 Quinnipiac St., Bldg. 40, Wallingford CT 06492
  
  
 ---------------------------------------------------------------
 Warning -- This program may not be used in any manner that
 competes with the business of Gaussian, Inc. or will provide
 assistance to any competitor of Gaussian, Inc.  The licensee
 of this program is prohibited from giving any competitor of
 Gaussian, Inc. access to this program.  By using this program,
 the user acknowledges that Gaussian, Inc. is engaged in the
 business of creating and licensing software in the field of
 computational chemistry and represents and warrants to the
 licensee that it is not a competitor of Gaussian, Inc. and that
 it will not use this program in any manner prohibited above.
 ---------------------------------------------------------------
  

 Cite this work as:
 Gaussian 16, Revision C.01,
 M. J. Frisch, G. W. Trucks, H. B. Schlegel, G. E. Scuseria, 
 M. A. Robb, J. R. Cheeseman, G. Scalmani, V. Barone, 
 G. A. Petersson, H. Nakatsuji, X. Li, M. Caricato, A. V. Marenich, 
 J. Bloino, B. G. Janesko, R. Gomperts, B. Mennucci, H. P. Hratchian, 
 J. V. Ortiz, A. F. Izmaylov, J. L. Sonnenberg, D. Williams-Young, 
 F. Ding, F. Lipparini, F. Egidi, J. Goings, B. Peng, A. Petrone, 
 T. Henderson, D. Ranasinghe, V. G. Zakrzewski, J. Gao, N. Rega, 
 G. Zheng, W. Liang, M. Hada, M. Ehara, K. Toyota, R. Fukuda, 
 J. Hasegawa, M. Ishida, T. Nakajima, Y. Honda, O. Kitao, H. Nakai, 
 T. Vreven, K. Throssell, J. A. Montgomery, Jr., J. E. Peralta, 
 F. Ogliaro, M. J. Bearpark, J. J. Heyd, E. N. Brothers, K. N. Kudin, 
 V. N. Staroverov, T. A. Keith, R. Kobayashi, J. Normand, 
 K. Raghavachari, A. P. Rendell, J. C. Burant, S. S. Iyengar, 
 J. Tomasi, M. Cossi, J. M. Millam, M. Klene, C. Adamo, R. Cammi, 
 J. W. Ochterski, R. L. Martin, K. Morokuma, O. Farkas, 
 J. B. Foresman, and D. J. Fox, Gaussian, Inc., Wallingford CT, 2019.
 
 ******************************************
 Gaussian 16:  ES64L-G16RevC.01  3-Jul-2019
                11-Sep-2023 
 ******************************************
 %mem=96000MB
 %nprocshared=24
 Will use up to   24 processors via shared memory.
 ---------------------
 # um062x Def2SVP Freq
 ---------------------
 1/10=4,30=1,38=1/1,3;
 2/12=2,17=6,18=5,40=1/2;
 3/5=43,7=101,11=2,25=1,30=1,71=2,74=-55,116=2,140=1/1,2,3;
 4//1;
 5/5=2,38=5,98=1/2;
 8/6=4,10=90,11=11/1;
 11/6=1,8=1,9=11,15=111,16=1/1,2,10;
 10/6=1/2;
 6/7=2,8=2,9=2,10=2,28=1/1;
 7/8=1,10=1,25=1/1,2,3,16;
 1/10=4,30=1/3;
 99//99;
 -------------------
 r0_C6H13NO_hess_g16
 -------------------
 Symbolic Z-matrix:
 Charge =  0 Multiplicity = 1
 C                    -1.98708  -0.59529   1.36092 
 C                    -0.9365   -0.48712   0.25883 
 C                    -1.46023   0.28847  -0.94556 
 C                     0.33228   0.16402   0.82311 
 N                     1.39254   0.33447  -0.14392 
 C                     2.00306  -0.84392  -0.71755 
 C                     1.78005   1.56823  -0.57334 
 O                     2.62455   1.78694  -1.40744 
 H                    -1.60631  -1.15454   2.22835 
 H                    -2.28676   0.40604   1.70932 
 H                    -2.88947  -1.10689   0.99805 
 H                    -0.67768  -1.50963  -0.06745 
 H                    -2.37366  -0.17402  -1.34593 
 H                    -0.71698   0.33087  -1.75482 
 H                    -1.70552   1.32451  -0.65933 
 H                     0.07497   1.15976   1.2213 
 H                     0.7053   -0.43558   1.67297 
 H                     2.89518  -0.53085  -1.2715 
 H                     2.28798  -1.54798   0.07929 
 H                     1.32024  -1.35988  -1.41265 
 H                     1.22384   2.3824   -0.05265 
 

 GradGradGradGradGradGradGradGradGradGradGradGradGradGradGradGradGradGrad
 Berny optimization.
 Initialization pass.
 Trust Radius=3.00D-01 FncErr=1.00D-07 GrdErr=1.00D-07 EigMax=2.50D+02 EigMin=1.00D-04
 Number of steps in this run=      2 maximum allowed number of steps=      2.
 GradGradGradGradGradGradGradGradGradGradGradGradGradGradGradGradGradGrad

                          Input orientation:                          
 ---------------------------------------------------------------------
 Center     Atomic      Atomic             Coordinates (Angstroms)
 Number     Number       Type             X           Y           Z
 ---------------------------------------------------------------------
      1          6           0       -1.987078   -0.595290    1.360917
      2          6           0       -0.936497   -0.487123    0.258829
      3          6           0       -1.460229    0.288466   -0.945564
      4          6           0        0.332284    0.164017    0.823113
      5          7           0        1.392538    0.334471   -0.143923
      6          6           0        2.003062   -0.843920   -0.717545
      7          6           0        1.780046    1.568229   -0.573337
      8          8           0        2.624553    1.786942   -1.407438
      9          1           0       -1.606314   -1.154535    2.228349
     10          1           0       -2.286761    0.406044    1.709316
     11          1           0       -2.889473   -1.106887    0.998050
     12          1           0       -0.677677   -1.509634   -0.067448
     13          1           0       -2.373657   -0.174017   -1.345925
     14          1           0       -0.716978    0.330869   -1.754816
     15          1           0       -1.705522    1.324512   -0.659328
     16          1           0        0.074969    1.159755    1.221304
     17          1           0        0.705300   -0.435579    1.672966
     18          1           0        2.895181   -0.530854   -1.271502
     19          1           0        2.287975   -1.547980    0.079286
     20          1           0        1.320237   -1.359882   -1.412652
     21          1           0        1.223843    2.382396   -0.052652
 ---------------------------------------------------------------------
                    Distance matrix (angstroms):
                    1          2          3          4          5
     1  C    0.000000
     2  C    1.526440   0.000000
     3  C    2.525559   1.525253   0.000000
     4  C    2.499044   1.533690   2.521271   0.000000
     5  N    3.814552   2.502325   2.963617   1.445113   0.000000
     6  C    4.505889   3.117951   3.650846   2.486174   1.445817
     7  C    4.755352   3.506648   3.503674   2.453141   1.362614
     8  O    5.882683   4.541904   4.375409   3.586606   2.285608
     9  H    1.100079   2.184743   3.489601   2.733392   4.103404
    10  H    1.101754   2.173677   2.783050   2.775487   4.120298
    11  H    1.098963   2.178226   2.787003   3.467783   4.660175
    12  H    2.142611   1.104071   2.148637   2.148075   2.773511
    13  H    2.766570   2.176855   1.099332   3.484409   3.985924
    14  H    3.489802   2.184506   1.099595   2.788281   2.654251
    15  H    2.801125   2.171735   1.102493   2.774353   3.292992
    16  H    2.711404   2.159081   2.794869   1.102842   2.069040
    17  H    2.715102   2.167473   3.474256   1.104946   2.089583
    18  H    5.547092   4.126207   4.443773   3.382115   2.068371
    19  H    4.563581   3.399246   4.297893   2.703505   2.096485
    20  H    4.383562   2.940817   3.265917   2.880445   2.117955
    21  H    4.601609   3.605306   3.519386   2.546183   2.056887
                    6          7          8          9         10
     6  C    0.000000
     7  C    2.426725   0.000000
     8  O    2.789917   1.206960   0.000000
     9  H    4.669301   5.170138   6.306463   0.000000
    10  H    5.084746   4.806256   5.978465   1.779834   0.000000
    11  H    5.191273   5.606239   6.675710   1.778315   1.777110
    12  H    2.837633   3.971091   4.854659   2.501828   3.068528
    13  H    4.472058   4.570072   5.369474   3.784926   3.111032
    14  H    3.139216   3.026893   3.661509   4.343149   3.803956
    15  H    4.296403   3.495136   4.418491   3.807124   2.606127
    16  H    3.389896   2.508959   3.715377   3.032621   2.526659
    17  H    2.750540   3.196279   4.255822   2.483729   3.108389
    18  H    1.095790   2.477319   2.337498   5.735974   6.051081
    19  H    1.100825   3.224076   3.666788   4.465284   5.234827
    20  H    1.102561   3.080537   3.406430   4.675870   5.086808
    21  H    3.385023   1.115053   2.037645   5.071749   4.397140
                   11         12         13         14         15
    11  H    0.000000
    12  H    2.487877   0.000000
    13  H    2.574982   2.508929   0.000000
    14  H    3.790138   2.497240   1.779519   0.000000
    15  H    3.171804   3.072323   1.778597   1.778943   0.000000
    16  H    3.738372   3.058267   3.790169   3.189282   2.595009
    17  H    3.718677   2.468858   4.319965   3.789460   3.788084
    18  H    6.240585   3.895263   5.281432   3.744843   4.998361
    19  H    5.276804   2.969527   5.064565   3.990457   4.974412
    20  H    4.857690   2.413226   3.880152   2.669449   4.114448
    21  H    5.495311   4.331731   4.598892   3.297410   3.173067
                   16         17         18         19         20
    16  H    0.000000
    17  H    1.773811   0.000000
    18  H    4.126238   3.670769   0.000000
    19  H    3.678781   2.506414   1.796628   0.000000
    20  H    3.851881   3.279256   1.785402   1.788233   0.000000
    21  H    2.106591   3.344791   3.572953   4.074020   3.982906
                   21
    21  H    0.000000
 Stoichiometry    C6H13NO
 Framework group  C1[X(C6H13NO)]
 Deg. of freedom    57
 Full point group                 C1      NOp   1
 Largest Abelian subgroup         C1      NOp   1
 Largest concise Abelian subgroup C1      NOp   1
                         Standard orientation:                         
 ---------------------------------------------------------------------
 Center     Atomic      Atomic             Coordinates (Angstroms)
 Number     Number       Type             X           Y           Z
 ---------------------------------------------------------------------
      1          6           0       -2.899778    0.184174   -0.462924
      2          6           0       -1.545851    0.135403    0.240297
      3          6           0       -1.323579   -1.199345    0.944171
      4          6           0       -0.431033    0.414063   -0.775446
      5          7           0        0.902288    0.373609   -0.219596
      6          6           0        1.271345    1.362705    0.768267
      7          6           0        1.788525   -0.606534   -0.552195
      8          8           0        2.899921   -0.730338   -0.098077
      9          1           0       -3.056948    1.147619   -0.970118
     10          1           0       -2.971004   -0.612384   -1.220739
     11          1           0       -3.721955    0.039975    0.251885
     12          1           0       -1.525167    0.939163    0.996945
     13          1           0       -2.126297   -1.402644    1.667250
     14          1           0       -0.365850   -1.218356    1.484082
     15          1           0       -1.313632   -2.023698    0.212164
     16          1           0       -0.484893   -0.339068   -1.579283
     17          1           0       -0.601434    1.399229   -1.245892
     18          1           0        2.353099    1.296443    0.930049
     19          1           0        1.009750    2.370320    0.410363
     20          1           0        0.760435    1.189352    1.729807
     21          1           0        1.370746   -1.301321   -1.317750
 ---------------------------------------------------------------------
 Rotational constants (GHZ):           3.8598313           1.1044242           1.0393782
 Standard basis: def2SVP (5D, 7F)
 There are   185 symmetry adapted cartesian basis functions of A   symmetry.
 There are   177 symmetry adapted basis functions of A   symmetry.
   177 basis functions,   291 primitive gaussians,   185 cartesian basis functions
    32 alpha electrons       32 beta electrons
       nuclear repulsion energy       398.6993475354 Hartrees.
 NAtoms=   21 NActive=   21 NUniq=   21 SFac= 1.00D+00 NAtFMM=   60 NAOKFM=F Big=F
 Integral buffers will be    131072 words long.
 Raffenetti 2 integral format.
 Two-electron integral symmetry is turned on.
 One-electron integrals computed using PRISM.
   1 Symmetry operations used in ECPInt.
 ECPInt:  NShTT=    3828 NPrTT=   13184 LenC2=    3789 LenP2D=   10653.
 LDataN:  DoStor=T MaxTD1= 4 Len=   56
 NBasis=   177 RedAO= T EigKep=  1.64D-03  NBF=   177
 NBsUse=   177 1.00D-06 EigRej= -1.00D+00 NBFU=   177
 ExpMin= 1.22D-01 ExpMax= 2.27D+03 ExpMxC= 3.41D+02 IAcc=3 IRadAn=         5 AccDes= 0.00D+00
 Harris functional with IExCor= 1009 and IRadAn=       5 diagonalized for initial guess.
 HarFok:  IExCor= 1009 AccDes= 0.00D+00 IRadAn=         5 IDoV= 1 UseB2=F ITyADJ=14
 ICtDFT=  3500011 ScaDFX=  1.000000  1.000000  1.000000  1.000000
 FoFCou: FMM=F IPFlag=           0 FMFlag=      100000 FMFlg1=           0
         NFxFlg=           0 DoJE=T BraDBF=F KetDBF=T FulRan=T
         wScrn=  0.000000 ICntrl=       500 IOpCl=  0 I1Cent=   200000004 NGrid=           0
         NMat0=    1 NMatS0=      1 NMatT0=    0 NMatD0=    1 NMtDS0=    0 NMtDT0=    0
 Petite list used in FoFCou.
 Initial guess <Sx>= 0.0000 <Sy>= 0.0000 <Sz>= 0.0000 <S**2>=-0.0000 S=-0.0000
 Requested convergence on RMS density matrix=1.00D-08 within 128 cycles.
 Requested convergence on MAX density matrix=1.00D-06.
 Requested convergence on             energy=1.00D-06.
 No special actions if energy rises.
 Integral accuracy reduced to 1.0D-05 until final iterations.
 Initial convergence to 1.0D-05 achieved.  Increase integral accuracy.
 SCF Done:  E(UM062X) =  -366.002734173     A.U. after   15 cycles
            NFock= 15  Conv=0.38D-08     -V/T= 2.0109
 <Sx>= 0.0000 <Sy>= 0.0000 <Sz>= 0.0000 <S**2>=-0.0000 S=-0.0000
 <L.S>=  0.00000000000    
 Annihilation of the first spin contaminant:
 S**2 before annihilation    -0.0000,   after     0.0000
 DoSCS=F DFT=T ScalE2(SS,OS)=  1.000000  1.000000
 Range of M.O.s used for correlation:     1   177
 NBasis=   177 NAE=    32 NBE=    32 NFC=     0 NFV=     0
 NROrb=    177 NOA=    32 NOB=    32 NVA=   145 NVB=   145
   1 Symmetry operations used in ECPInt.
 ECPInt:  NShTT=    3828 NPrTT=   13184 LenC2=    3789 LenP2D=   10653.
 LDataN:  DoStor=T MaxTD1= 5 Len=  102
 Symmetrizing basis deriv contribution to polar:
 IMax=3 JMax=2 DiffMx= 0.00D+00
 G2DrvN: will do    22 centers at a time, making    1 passes.
 Calling FoFCou, ICntrl=  3107 FMM=F I1Cent=   0 AccDes= 0.00D+00.
 End of G2Drv F.D. properties file   721 does not exist.
 End of G2Drv F.D. properties file   722 does not exist.
 End of G2Drv F.D. properties file   788 does not exist.
          IDoAtm=111111111111111111111
          Differentiating once with respect to electric field.
                with respect to dipole field.
          Differentiating once with respect to nuclear coordinates.
 Keep R1 and R2 ints in memory in canonical form, NReq=272470807.
          There are    66 degrees of freedom in the 1st order CPHF.  IDoFFX=6 NUNeed=     3.
     63 vectors produced by pass  0 Test12= 1.41D-14 1.52D-09 XBig12= 7.79D+01 2.78D+00.
 AX will form    63 AO Fock derivatives at one time.
     63 vectors produced by pass  1 Test12= 1.41D-14 1.52D-09 XBig12= 9.14D+00 4.37D-01.
     63 vectors produced by pass  2 Test12= 1.41D-14 1.52D-09 XBig12= 1.57D-01 5.81D-02.
     63 vectors produced by pass  3 Test12= 1.41D-14 1.52D-09 XBig12= 1.51D-03 4.92D-03.
     63 vectors produced by pass  4 Test12= 1.41D-14 1.52D-09 XBig12= 7.09D-06 2.18D-04.
     63 vectors produced by pass  5 Test12= 1.41D-14 1.52D-09 XBig12= 2.06D-08 9.07D-06.
     25 vectors produced by pass  6 Test12= 1.41D-14 1.52D-09 XBig12= 4.68D-11 4.71D-07.
      3 vectors produced by pass  7 Test12= 1.41D-14 1.52D-09 XBig12= 9.19D-14 1.82D-08.
 InvSVY:  IOpt=1 It=  1 EMax= 3.55D-15
 Solved reduced A of dimension   406 with    66 vectors.
 Isotropic polarizability for W=    0.000000       75.33 Bohr**3.
 End of Minotr F.D. properties file   721 does not exist.
 End of Minotr F.D. properties file   722 does not exist.
 End of Minotr F.D. properties file   788 does not exist.

 **********************************************************************

            Population analysis using the SCF Density.

 **********************************************************************

 Orbital symmetries:
 Alpha Orbitals:
       Occupied  (A) (A) (A) (A) (A) (A) (A) (A) (A) (A) (A) (A)
                 (A) (A) (A) (A) (A) (A) (A) (A) (A) (A) (A) (A)
                 (A) (A) (A) (A) (A) (A) (A) (A)
       Virtual   (A) (A) (A) (A) (A) (A) (A) (A) (A) (A) (A) (A)
                 (A) (A) (A) (A) (A) (A) (A) (A) (A) (A) (A) (A)
                 (A) (A) (A) (A) (A) (A) (A) (A) (A) (A) (A) (A)
                 (A) (A) (A) (A) (A) (A) (A) (A) (A) (A) (A) (A)
                 (A) (A) (A) (A) (A) (A) (A) (A) (A) (A) (A) (A)
                 (A) (A) (A) (A) (A) (A) (A) (A) (A) (A) (A) (A)
                 (A) (A) (A) (A) (A) (A) (A) (A) (A) (A) (A) (A)
                 (A) (A) (A) (A) (A) (A) (A) (A) (A) (A) (A) (A)
                 (A) (A) (A) (A) (A) (A) (A) (A) (A) (A) (A) (A)
                 (A) (A) (A) (A) (A) (A) (A) (A) (A) (A) (A) (A)
                 (A) (A) (A) (A) (A) (A) (A) (A) (A) (A) (A) (A)
                 (A) (A) (A) (A) (A) (A) (A) (A) (A) (A) (A) (A)
                 (A)
 Beta  Orbitals:
       Occupied  (A) (A) (A) (A) (A) (A) (A) (A) (A) (A) (A) (A)
                 (A) (A) (A) (A) (A) (A) (A) (A) (A) (A) (A) (A)
                 (A) (A) (A) (A) (A) (A) (A) (A)
       Virtual   (A) (A) (A) (A) (A) (A) (A) (A) (A) (A) (A) (A)
                 (A) (A) (A) (A) (A) (A) (A) (A) (A) (A) (A) (A)
                 (A) (A) (A) (A) (A) (A) (A) (A) (A) (A) (A) (A)
                 (A) (A) (A) (A) (A) (A) (A) (A) (A) (A) (A) (A)
                 (A) (A) (A) (A) (A) (A) (A) (A) (A) (A) (A) (A)
                 (A) (A) (A) (A) (A) (A) (A) (A) (A) (A) (A) (A)
                 (A) (A) (A) (A) (A) (A) (A) (A) (A) (A) (A) (A)
                 (A) (A) (A) (A) (A) (A) (A) (A) (A) (A) (A) (A)
                 (A) (A) (A) (A) (A) (A) (A) (A) (A) (A) (A) (A)
                 (A) (A) (A) (A) (A) (A) (A) (A) (A) (A) (A) (A)
                 (A) (A) (A) (A) (A) (A) (A) (A) (A) (A) (A) (A)
                 (A) (A) (A) (A) (A) (A) (A) (A) (A) (A) (A) (A)
                 (A)
 The electronic state is 1-A.
 Alpha  occ. eigenvalues --  -19.59441 -14.78668 -10.64726 -10.59666 -10.58553
 Alpha  occ. eigenvalues --  -10.56531 -10.55447 -10.55047  -1.14304  -1.04012
 Alpha  occ. eigenvalues --   -0.90422  -0.81017  -0.77832  -0.77340  -0.65593
 Alpha  occ. eigenvalues --   -0.64096  -0.59643  -0.56066  -0.53842  -0.53116
 Alpha  occ. eigenvalues --   -0.49591  -0.48561  -0.47181  -0.45894  -0.45102
 Alpha  occ. eigenvalues --   -0.45017  -0.44501  -0.41249  -0.40536  -0.39557
 Alpha  occ. eigenvalues --   -0.32706  -0.29910
 Alpha virt. eigenvalues --    0.07268   0.07822   0.10345   0.11778   0.13211
 Alpha virt. eigenvalues --    0.14719   0.15272   0.16297   0.17145   0.17790
 Alpha virt. eigenvalues --    0.18820   0.19402   0.20478   0.22299   0.23080
 Alpha virt. eigenvalues --    0.25090   0.26390   0.27192   0.29028   0.31483
 Alpha virt. eigenvalues --    0.37927   0.42726   0.43812   0.44811   0.46459
 Alpha virt. eigenvalues --    0.50058   0.51089   0.53451   0.55746   0.59178
 Alpha virt. eigenvalues --    0.59746   0.61176   0.65038   0.66433   0.67702
 Alpha virt. eigenvalues --    0.68075   0.68838   0.69991   0.70296   0.71246
 Alpha virt. eigenvalues --    0.71757   0.72303   0.72751   0.73116   0.73492
 Alpha virt. eigenvalues --    0.75088   0.75496   0.76514   0.76703   0.77657
 Alpha virt. eigenvalues --    0.78320   0.78568   0.79805   0.88788   0.97936
 Alpha virt. eigenvalues --    0.98711   1.01829   1.06157   1.09206   1.11745
 Alpha virt. eigenvalues --    1.13585   1.14291   1.16351   1.20854   1.25125
 Alpha virt. eigenvalues --    1.27726   1.28723   1.33647   1.36981   1.38102
 Alpha virt. eigenvalues --    1.44337   1.49393   1.54473   1.56551   1.57738
 Alpha virt. eigenvalues --    1.58398   1.59452   1.62053   1.63559   1.65613
 Alpha virt. eigenvalues --    1.69971   1.74863   1.76868   1.78402   1.80731
 Alpha virt. eigenvalues --    1.82315   1.83460   1.84228   1.85063   1.85479
 Alpha virt. eigenvalues --    1.86168   1.86457   1.88653   1.90499   1.91253
 Alpha virt. eigenvalues --    1.93340   1.94750   1.96529   1.97784   1.98779
 Alpha virt. eigenvalues --    2.01953   2.02968   2.03663   2.05078   2.08808
 Alpha virt. eigenvalues --    2.13770   2.14934   2.19489   2.23486   2.29229
 Alpha virt. eigenvalues --    2.30410   2.33568   2.37197   2.39119   2.42893
 Alpha virt. eigenvalues --    2.44043   2.46586   2.48407   2.52959   2.57247
 Alpha virt. eigenvalues --    2.61201   2.64584   2.64948   2.66038   2.67606
 Alpha virt. eigenvalues --    2.70266   2.72876   2.81914   2.84010   2.85761
 Alpha virt. eigenvalues --    2.86678   2.89428   2.90972   2.92979   2.93622
 Alpha virt. eigenvalues --    2.96653   2.98700   3.01713   3.07575   3.08519
 Alpha virt. eigenvalues --    3.14703   3.25714   3.27301   3.58233   3.71121
  Beta  occ. eigenvalues --  -19.59441 -14.78668 -10.64726 -10.59666 -10.58553
  Beta  occ. eigenvalues --  -10.56531 -10.55447 -10.55047  -1.14304  -1.04012
  Beta  occ. eigenvalues --   -0.90422  -0.81017  -0.77832  -0.77340  -0.65593
  Beta  occ. eigenvalues --   -0.64096  -0.59643  -0.56066  -0.53842  -0.53116
  Beta  occ. eigenvalues --   -0.49591  -0.48561  -0.47181  -0.45894  -0.45102
  Beta  occ. eigenvalues --   -0.45017  -0.44501  -0.41249  -0.40536  -0.39557
  Beta  occ. eigenvalues --   -0.32706  -0.29910
  Beta virt. eigenvalues --    0.07268   0.07822   0.10345   0.11778   0.13211
  Beta virt. eigenvalues --    0.14719   0.15272   0.16297   0.17145   0.17790
  Beta virt. eigenvalues --    0.18820   0.19402   0.20478   0.22299   0.23080
  Beta virt. eigenvalues --    0.25090   0.26390   0.27192   0.29028   0.31483
  Beta virt. eigenvalues --    0.37927   0.42726   0.43812   0.44811   0.46459
  Beta virt. eigenvalues --    0.50058   0.51089   0.53451   0.55746   0.59178
  Beta virt. eigenvalues --    0.59746   0.61176   0.65038   0.66433   0.67702
  Beta virt. eigenvalues --    0.68075   0.68838   0.69991   0.70296   0.71246
  Beta virt. eigenvalues --    0.71757   0.72303   0.72751   0.73116   0.73492
  Beta virt. eigenvalues --    0.75088   0.75496   0.76514   0.76703   0.77657
  Beta virt. eigenvalues --    0.78320   0.78568   0.79805   0.88788   0.97936
  Beta virt. eigenvalues --    0.98711   1.01829   1.06157   1.09206   1.11745
  Beta virt. eigenvalues --    1.13585   1.14291   1.16351   1.20854   1.25125
  Beta virt. eigenvalues --    1.27726   1.28723   1.33647   1.36981   1.38102
  Beta virt. eigenvalues --    1.44337   1.49393   1.54473   1.56551   1.57738
  Beta virt. eigenvalues --    1.58398   1.59452   1.62053   1.63559   1.65613
  Beta virt. eigenvalues --    1.69971   1.74863   1.76868   1.78402   1.80731
  Beta virt. eigenvalues --    1.82315   1.83460   1.84228   1.85063   1.85479
  Beta virt. eigenvalues --    1.86168   1.86457   1.88653   1.90499   1.91253
  Beta virt. eigenvalues --    1.93340   1.94750   1.96529   1.97784   1.98779
  Beta virt. eigenvalues --    2.01953   2.02968   2.03663   2.05078   2.08808
  Beta virt. eigenvalues --    2.13770   2.14934   2.19489   2.23486   2.29229
  Beta virt. eigenvalues --    2.30410   2.33568   2.37197   2.39119   2.42893
  Beta virt. eigenvalues --    2.44043   2.46586   2.48407   2.52959   2.57247
  Beta virt. eigenvalues --    2.61201   2.64584   2.64948   2.66038   2.67606
  Beta virt. eigenvalues --    2.70266   2.72876   2.81914   2.84010   2.85761
  Beta virt. eigenvalues --    2.86678   2.89428   2.90972   2.92979   2.93622
  Beta virt. eigenvalues --    2.96653   2.98700   3.01713   3.07575   3.08519
  Beta virt. eigenvalues --    3.14703   3.25714   3.27301   3.58233   3.71121
          Condensed to atoms (all electrons):
               1          2          3          4          5          6
     1  C    4.593544   0.394672  -0.051302  -0.054443   0.006563   0.000092
     2  C    0.394672   5.123015   0.341270   0.311512  -0.095990  -0.000834
     3  C   -0.051302   0.341270   4.660301  -0.054792   0.014224  -0.004650
     4  C   -0.054443   0.311512  -0.054792   4.682406   0.322013  -0.041835
     5  N    0.006563  -0.095990   0.014224   0.322013   6.944699   0.289594
     6  C    0.000092  -0.000834  -0.004650  -0.041835   0.289594   4.523576
     7  C    0.000092  -0.002810   0.001317  -0.022809   0.260042  -0.027345
     8  O   -0.000000   0.000210  -0.000356   0.002017  -0.108502  -0.004171
     9  H    0.390370  -0.024100   0.008983  -0.004369   0.000215  -0.000023
    10  H    0.397756  -0.026464  -0.008484  -0.010000   0.000018   0.000025
    11  H    0.391969  -0.018467  -0.005600   0.007741  -0.000237  -0.000008
    12  H   -0.026083   0.364933  -0.036123  -0.023041  -0.006750   0.007352
    13  H   -0.004756  -0.020554   0.391975   0.008306   0.000285  -0.000046
    14  H    0.007725  -0.014607   0.393604  -0.012055   0.006095  -0.000486
    15  H   -0.006580  -0.035423   0.396542  -0.001836  -0.002190   0.000266
    16  H   -0.003945  -0.028334  -0.011844   0.385982  -0.031764   0.007703
    17  H    0.000895  -0.058817   0.011943   0.403900  -0.029278  -0.005843
    18  H    0.000010  -0.000610   0.000083   0.006290  -0.030306   0.396864
    19  H    0.000101  -0.008376   0.000684   0.004645  -0.034503   0.401011
    20  H   -0.000106   0.015356  -0.002762  -0.011459  -0.035192   0.408190
    21  H    0.000008  -0.001415  -0.000407  -0.000432  -0.110599   0.007081
               7          8          9         10         11         12
     1  C    0.000092  -0.000000   0.390370   0.397756   0.391969  -0.026083
     2  C   -0.002810   0.000210  -0.024100  -0.026464  -0.018467   0.364933
     3  C    0.001317  -0.000356   0.008983  -0.008484  -0.005600  -0.036123
     4  C   -0.022809   0.002017  -0.004369  -0.010000   0.007741  -0.023041
     5  N    0.260042  -0.108502   0.000215   0.000018  -0.000237  -0.006750
     6  C   -0.027345  -0.004171  -0.000023   0.000025  -0.000008   0.007352
     7  C    4.472705   0.671173  -0.000002  -0.000020  -0.000004  -0.000162
     8  O    0.671173   7.756947  -0.000000   0.000000  -0.000000   0.000008
     9  H   -0.000002  -0.000000   0.634452  -0.023708  -0.021638  -0.006625
    10  H   -0.000020   0.000000  -0.023708   0.637949  -0.023651   0.008328
    11  H   -0.000004  -0.000000  -0.021638  -0.023651   0.627403  -0.007548
    12  H   -0.000162   0.000008  -0.006625   0.008328  -0.007548   0.691543
    13  H   -0.000114   0.000001   0.000081  -0.001115   0.004251  -0.006222
    14  H    0.002314  -0.000138  -0.000417  -0.000019   0.000036  -0.007345
    15  H    0.000505   0.000010  -0.000072   0.006324  -0.001046   0.008709
    16  H   -0.004815   0.000326  -0.001528   0.007509  -0.000206   0.008618
    17  H    0.001120  -0.000091   0.006700  -0.001347  -0.000293  -0.008556
    18  H   -0.006729   0.025939   0.000000   0.000001  -0.000001  -0.000119
    19  H    0.003439   0.000450   0.000021  -0.000001  -0.000005   0.000829
    20  H    0.000434   0.000397  -0.000017  -0.000012   0.000028  -0.001288
    21  H    0.416262  -0.038503   0.000009  -0.000064  -0.000001  -0.000056
              13         14         15         16         17         18
     1  C   -0.004756   0.007725  -0.006580  -0.003945   0.000895   0.000010
     2  C   -0.020554  -0.014607  -0.035423  -0.028334  -0.058817  -0.000610
     3  C    0.391975   0.393604   0.396542  -0.011844   0.011943   0.000083
     4  C    0.008306  -0.012055  -0.001836   0.385982   0.403900   0.006290
     5  N    0.000285   0.006095  -0.002190  -0.031764  -0.029278  -0.030306
     6  C   -0.000046  -0.000486   0.000266   0.007703  -0.005843   0.396864
     7  C   -0.000114   0.002314   0.000505  -0.004815   0.001120  -0.006729
     8  O    0.000001  -0.000138   0.000010   0.000326  -0.000091   0.025939
     9  H    0.000081  -0.000417  -0.000072  -0.001528   0.006700   0.000000
    10  H   -0.001115  -0.000019   0.006324   0.007509  -0.001347   0.000001
    11  H    0.004251   0.000036  -0.001046  -0.000206  -0.000293  -0.000001
    12  H   -0.006222  -0.007345   0.008709   0.008618  -0.008556  -0.000119
    13  H    0.624194  -0.019502  -0.023358   0.000017  -0.000371  -0.000001
    14  H   -0.019502   0.613701  -0.023577  -0.000884   0.000208  -0.000121
    15  H   -0.023358  -0.023577   0.642164   0.005844  -0.000135   0.000011
    16  H    0.000017  -0.000884   0.005844   0.647535  -0.024328  -0.000238
    17  H   -0.000371   0.000208  -0.000135  -0.024328   0.657048   0.000291
    18  H   -0.000001  -0.000121   0.000011  -0.000238   0.000291   0.557602
    19  H   -0.000001   0.000059  -0.000016   0.000077   0.007159  -0.014109
    20  H   -0.000120   0.002042  -0.000082  -0.000164  -0.002001  -0.020921
    21  H   -0.000021  -0.000226   0.000533   0.008838  -0.000137   0.002434
              19         20         21
     1  C    0.000101  -0.000106   0.000008
     2  C   -0.008376   0.015356  -0.001415
     3  C    0.000684  -0.002762  -0.000407
     4  C    0.004645  -0.011459  -0.000432
     5  N   -0.034503  -0.035192  -0.110599
     6  C    0.401011   0.408190   0.007081
     7  C    0.003439   0.000434   0.416262
     8  O    0.000450   0.000397  -0.038503
     9  H    0.000021  -0.000017   0.000009
    10  H   -0.000001  -0.000012  -0.000064
    11  H   -0.000005   0.000028  -0.000001
    12  H    0.000829  -0.001288  -0.000056
    13  H   -0.000001  -0.000120  -0.000021
    14  H    0.000059   0.002042  -0.000226
    15  H   -0.000016  -0.000082   0.000533
    16  H    0.000077  -0.000164   0.008838
    17  H    0.007159  -0.002001  -0.000137
    18  H   -0.014109  -0.020921   0.002434
    19  H    0.625895  -0.034668  -0.000250
    20  H   -0.034668   0.626036  -0.000316
    21  H   -0.000250  -0.000316   0.703840
          Atomic-Atomic Spin Densities.
               1          2          3          4          5          6
     1  C    0.000000   0.000000   0.000000   0.000000   0.000000   0.000000
     2  C    0.000000   0.000000   0.000000   0.000000   0.000000   0.000000
     3  C    0.000000   0.000000   0.000000   0.000000   0.000000   0.000000
     4  C    0.000000   0.000000   0.000000   0.000000   0.000000   0.000000
     5  N    0.000000   0.000000   0.000000   0.000000   0.000000   0.000000
     6  C    0.000000   0.000000   0.000000   0.000000   0.000000   0.000000
     7  C    0.000000   0.000000   0.000000   0.000000   0.000000   0.000000
     8  O    0.000000   0.000000   0.000000   0.000000   0.000000   0.000000
     9  H    0.000000   0.000000   0.000000   0.000000   0.000000   0.000000
    10  H    0.000000   0.000000   0.000000   0.000000   0.000000   0.000000
    11  H    0.000000   0.000000   0.000000   0.000000   0.000000   0.000000
    12  H    0.000000   0.000000   0.000000   0.000000   0.000000   0.000000
    13  H    0.000000   0.000000   0.000000   0.000000   0.000000   0.000000
    14  H    0.000000   0.000000   0.000000   0.000000   0.000000   0.000000
    15  H    0.000000   0.000000   0.000000   0.000000   0.000000   0.000000
    16  H    0.000000   0.000000   0.000000   0.000000   0.000000   0.000000
    17  H    0.000000   0.000000   0.000000   0.000000   0.000000   0.000000
    18  H    0.000000   0.000000   0.000000   0.000000   0.000000   0.000000
    19  H    0.000000   0.000000   0.000000   0.000000   0.000000   0.000000
    20  H    0.000000   0.000000   0.000000   0.000000   0.000000   0.000000
    21  H    0.000000   0.000000   0.000000   0.000000   0.000000   0.000000
               7          8          9         10         11         12
     1  C    0.000000   0.000000   0.000000   0.000000   0.000000   0.000000
     2  C    0.000000   0.000000   0.000000   0.000000   0.000000   0.000000
     3  C    0.000000   0.000000   0.000000   0.000000   0.000000   0.000000
     4  C    0.000000   0.000000   0.000000   0.000000   0.000000   0.000000
     5  N    0.000000   0.000000   0.000000   0.000000   0.000000   0.000000
     6  C    0.000000   0.000000   0.000000   0.000000   0.000000   0.000000
     7  C    0.000000   0.000000   0.000000   0.000000   0.000000   0.000000
     8  O    0.000000   0.000000   0.000000   0.000000   0.000000   0.000000
     9  H    0.000000   0.000000   0.000000   0.000000   0.000000   0.000000
    10  H    0.000000   0.000000   0.000000   0.000000   0.000000   0.000000
    11  H    0.000000   0.000000   0.000000   0.000000   0.000000   0.000000
    12  H    0.000000   0.000000   0.000000   0.000000   0.000000   0.000000
    13  H    0.000000   0.000000   0.000000   0.000000   0.000000   0.000000
    14  H    0.000000   0.000000   0.000000   0.000000   0.000000   0.000000
    15  H    0.000000   0.000000   0.000000   0.000000   0.000000   0.000000
    16  H    0.000000   0.000000   0.000000   0.000000   0.000000   0.000000
    17  H    0.000000   0.000000   0.000000   0.000000   0.000000   0.000000
    18  H    0.000000   0.000000   0.000000   0.000000   0.000000   0.000000
    19  H    0.000000   0.000000   0.000000   0.000000   0.000000   0.000000
    20  H    0.000000   0.000000   0.000000   0.000000   0.000000   0.000000
    21  H    0.000000   0.000000   0.000000   0.000000   0.000000   0.000000
              13         14         15         16         17         18
     1  C    0.000000   0.000000   0.000000   0.000000   0.000000   0.000000
     2  C    0.000000   0.000000   0.000000   0.000000   0.000000   0.000000
     3  C    0.000000   0.000000   0.000000   0.000000   0.000000   0.000000
     4  C    0.000000   0.000000   0.000000   0.000000   0.000000   0.000000
     5  N    0.000000   0.000000   0.000000   0.000000   0.000000   0.000000
     6  C    0.000000   0.000000   0.000000   0.000000   0.000000   0.000000
     7  C    0.000000   0.000000   0.000000   0.000000   0.000000   0.000000
     8  O    0.000000   0.000000   0.000000   0.000000   0.000000   0.000000
     9  H    0.000000   0.000000   0.000000   0.000000   0.000000   0.000000
    10  H    0.000000   0.000000   0.000000   0.000000   0.000000   0.000000
    11  H    0.000000   0.000000   0.000000   0.000000   0.000000   0.000000
    12  H    0.000000   0.000000   0.000000   0.000000   0.000000   0.000000
    13  H    0.000000   0.000000   0.000000   0.000000   0.000000   0.000000
    14  H    0.000000   0.000000   0.000000   0.000000   0.000000   0.000000
    15  H    0.000000   0.000000   0.000000   0.000000   0.000000   0.000000
    16  H    0.000000   0.000000   0.000000   0.000000   0.000000   0.000000
    17  H    0.000000   0.000000   0.000000   0.000000   0.000000   0.000000
    18  H    0.000000   0.000000   0.000000   0.000000   0.000000   0.000000
    19  H    0.000000   0.000000   0.000000   0.000000   0.000000   0.000000
    20  H    0.000000   0.000000   0.000000   0.000000   0.000000   0.000000
    21  H    0.000000   0.000000   0.000000   0.000000   0.000000   0.000000
              19         20         21
     1  C    0.000000   0.000000   0.000000
     2  C    0.000000   0.000000   0.000000
     3  C    0.000000   0.000000   0.000000
     4  C    0.000000   0.000000   0.000000
     5  N    0.000000   0.000000   0.000000
     6  C    0.000000   0.000000   0.000000
     7  C    0.000000   0.000000   0.000000
     8  O    0.000000   0.000000   0.000000
     9  H    0.000000   0.000000   0.000000
    10  H    0.000000   0.000000   0.000000
    11  H    0.000000   0.000000   0.000000
    12  H    0.000000   0.000000   0.000000
    13  H    0.000000   0.000000   0.000000
    14  H    0.000000   0.000000   0.000000
    15  H    0.000000   0.000000   0.000000
    16  H    0.000000   0.000000   0.000000
    17  H    0.000000   0.000000   0.000000
    18  H    0.000000   0.000000   0.000000
    19  H    0.000000   0.000000   0.000000
    20  H    0.000000   0.000000   0.000000
    21  H    0.000000   0.000000   0.000000
 Mulliken charges and spin densities:
               1          2
     1  C   -0.036582   0.000000
     2  C   -0.214166   0.000000
     3  C   -0.044607   0.000000
     4  C    0.102259   0.000000
     5  N   -0.358437   0.000000
     6  C    0.043485   0.000000
     7  C    0.235406   0.000000
     8  O   -0.305717   0.000000
     9  H    0.041669   0.000000
    10  H    0.036975   0.000000
    11  H    0.047275   0.000000
    12  H    0.039599   0.000000
    13  H    0.047074   0.000000
    14  H    0.053592   0.000000
    15  H    0.033404   0.000000
    16  H    0.035602   0.000000
    17  H    0.041934   0.000000
    18  H    0.083631   0.000000
    19  H    0.047560   0.000000
    20  H    0.056626   0.000000
    21  H    0.013420   0.000000
 Sum of Mulliken charges =  -0.00000   0.00000
 Mulliken charges and spin densities with hydrogens summed into heavy atoms:
               1          2
     1  C    0.089336   0.000000
     2  C   -0.174567   0.000000
     3  C    0.089463   0.000000
     4  C    0.179794   0.000000
     5  N   -0.358437   0.000000
     6  C    0.231302   0.000000
     7  C    0.248826   0.000000
     8  O   -0.305717   0.000000
 APT charges:
               1
     1  C    0.037596
     2  C    0.069098
     3  C    0.003042
     4  C    0.383680
     5  N   -0.846034
     6  C    0.243226
     7  C    1.099292
     8  O   -0.831862
     9  H   -0.011472
    10  H   -0.010308
    11  H   -0.012379
    12  H   -0.050658
    13  H   -0.006080
    14  H    0.001697
    15  H   -0.007284
    16  H   -0.011563
    17  H   -0.055604
    18  H    0.066529
    19  H   -0.010659
    20  H   -0.021038
    21  H   -0.029221
 Sum of APT charges =   0.00000
 APT charges with hydrogens summed into heavy atoms:
               1
     1  C    0.003437
     2  C    0.018440
     3  C   -0.008625
     4  C    0.316513
     5  N   -0.846034
     6  C    0.278059
     7  C    1.070070
     8  O   -0.831862
 Electronic spatial extent (au):  <R**2>=           1243.4927
 Charge=             -0.0000 electrons
 Dipole moment (field-independent basis, Debye):
    X=             -3.6431    Y=              1.3851    Z=             -0.3178  Tot=              3.9104
 Quadrupole moment (field-independent basis, Debye-Ang):
   XX=            -62.8454   YY=            -49.8606   ZZ=            -49.2647
   XY=              3.9926   XZ=             -0.0940   YZ=              1.4536
 Traceless Quadrupole moment (field-independent basis, Debye-Ang):
   XX=             -8.8551   YY=              4.1296   ZZ=              4.7255
   XY=              3.9926   XZ=             -0.0940   YZ=              1.4536
 Octapole moment (field-independent basis, Debye-Ang**2):
  XXX=            -31.8390  YYY=              2.5479  ZZZ=             -0.3178  XYY=              3.0602
  XXY=             12.8390  XXZ=              2.3235  XZZ=              5.0482  YZZ=             -1.2249
  YYZ=             -1.3718  XYZ=              2.2832
 Hexadecapole moment (field-independent basis, Debye-Ang**3):
 XXXX=          -1256.5554 YYYY=           -289.6402 ZZZZ=           -215.8276 XXXY=             37.9107
 XXXZ=             -5.4600 YYYX=             -3.8724 YYYZ=              2.8065 ZZZX=             -2.7457
 ZZZY=              3.5964 XXYY=           -242.6118 XXZZ=           -217.7335 YYZZ=            -82.9940
 XXYZ=              1.6195 YYXZ=              2.2330 ZZXY=             -2.1711
 N-N= 3.986993475354D+02 E-N=-1.646710834174D+03  KE= 3.620649971958D+02
  Exact polarizability:      88.068      -4.325      71.455       3.144       3.128      66.468
 Approx polarizability:      96.075      -7.556      83.517       4.819       4.204      79.016
                          Isotropic Fermi Contact Couplings
        Atom                 a.u.       MegaHertz       Gauss      10(-4) cm-1
     1  C(13)              0.00000       0.00000       0.00000       0.00000
     2  C(13)              0.00000       0.00000       0.00000       0.00000
     3  C(13)              0.00000       0.00000       0.00000       0.00000
     4  C(13)              0.00000       0.00000       0.00000       0.00000
     5  N(14)              0.00000       0.00000       0.00000       0.00000
     6  C(13)              0.00000       0.00000       0.00000       0.00000
     7  C(13)              0.00000       0.00000       0.00000       0.00000
     8  O(17)              0.00000      -0.00000      -0.00000      -0.00000
     9  H(1)               0.00000       0.00000       0.00000       0.00000
    10  H(1)               0.00000       0.00000       0.00000       0.00000
    11  H(1)               0.00000       0.00000       0.00000       0.00000
    12  H(1)               0.00000       0.00000       0.00000       0.00000
    13  H(1)               0.00000       0.00000       0.00000       0.00000
    14  H(1)               0.00000       0.00000       0.00000       0.00000
    15  H(1)               0.00000       0.00000       0.00000       0.00000
    16  H(1)               0.00000       0.00000       0.00000       0.00000
    17  H(1)               0.00000       0.00000       0.00000       0.00000
    18  H(1)               0.00000       0.00000       0.00000       0.00000
    19  H(1)               0.00000       0.00000       0.00000       0.00000
    20  H(1)               0.00000       0.00000       0.00000       0.00000
    21  H(1)               0.00000       0.00000       0.00000       0.00000
 --------------------------------------------------------
       Center         ----  Spin Dipole Couplings  ----
                      3XX-RR        3YY-RR        3ZZ-RR
 --------------------------------------------------------
     1   Atom        0.000000      0.000000      0.000000
     2   Atom        0.000000      0.000000      0.000000
     3   Atom        0.000000      0.000000      0.000000
     4   Atom        0.000000      0.000000      0.000000
     5   Atom        0.000000      0.000000      0.000000
     6   Atom        0.000000      0.000000      0.000000
     7   Atom        0.000000      0.000000      0.000000
     8   Atom        0.000000      0.000000      0.000000
     9   Atom        0.000000      0.000000      0.000000
    10   Atom        0.000000      0.000000      0.000000
    11   Atom        0.000000      0.000000      0.000000
    12   Atom        0.000000      0.000000      0.000000
    13   Atom        0.000000      0.000000      0.000000
    14   Atom        0.000000      0.000000      0.000000
    15   Atom        0.000000      0.000000      0.000000
    16   Atom        0.000000      0.000000      0.000000
    17   Atom        0.000000      0.000000      0.000000
    18   Atom        0.000000      0.000000      0.000000
    19   Atom        0.000000      0.000000      0.000000
    20   Atom        0.000000      0.000000      0.000000
    21   Atom        0.000000      0.000000      0.000000
 --------------------------------------------------------
                        XY            XZ            YZ
 --------------------------------------------------------
     1   Atom        0.000000      0.000000      0.000000
     2   Atom        0.000000      0.000000      0.000000
     3   Atom        0.000000      0.000000      0.000000
     4   Atom        0.000000      0.000000      0.000000
     5   Atom        0.000000      0.000000      0.000000
     6   Atom        0.000000      0.000000      0.000000
     7   Atom        0.000000      0.000000      0.000000
     8   Atom        0.000000      0.000000      0.000000
     9   Atom        0.000000      0.000000      0.000000
    10   Atom        0.000000      0.000000      0.000000
    11   Atom        0.000000      0.000000      0.000000
    12   Atom        0.000000      0.000000      0.000000
    13   Atom        0.000000      0.000000      0.000000
    14   Atom        0.000000      0.000000      0.000000
    15   Atom        0.000000      0.000000      0.000000
    16   Atom        0.000000      0.000000      0.000000
    17   Atom        0.000000      0.000000      0.000000
    18   Atom        0.000000      0.000000      0.000000
    19   Atom        0.000000      0.000000      0.000000
    20   Atom        0.000000      0.000000      0.000000
    21   Atom        0.000000      0.000000      0.000000
 --------------------------------------------------------


 ---------------------------------------------------------------------------------
              Anisotropic Spin Dipole Couplings in Principal Axis System
 ---------------------------------------------------------------------------------

       Atom             a.u.   MegaHertz   Gauss  10(-4) cm-1        Axes

              Baa     0.0000     0.000     0.000     0.000  1.0000  0.0000  0.0000
     1 C(13)  Bbb     0.0000     0.000     0.000     0.000 -0.0000  1.0000  0.0000
              Bcc     0.0000     0.000     0.000     0.000  0.0000  0.0000  1.0000
 
              Baa     0.0000     0.000     0.000     0.000  1.0000  0.0000  0.0000
     2 C(13)  Bbb     0.0000     0.000     0.000     0.000 -0.0000  1.0000  0.0000
              Bcc     0.0000     0.000     0.000     0.000  0.0000  0.0000  1.0000
 
              Baa     0.0000     0.000     0.000     0.000  1.0000  0.0000  0.0000
     3 C(13)  Bbb     0.0000     0.000     0.000     0.000 -0.0000  1.0000  0.0000
              Bcc     0.0000     0.000     0.000     0.000  0.0000  0.0000  1.0000
 
              Baa     0.0000     0.000     0.000     0.000  1.0000  0.0000  0.0000
     4 C(13)  Bbb     0.0000     0.000     0.000     0.000 -0.0000  1.0000  0.0000
              Bcc     0.0000     0.000     0.000     0.000  0.0000  0.0000  1.0000
 
              Baa     0.0000     0.000     0.000     0.000  1.0000  0.0000  0.0000
     5 N(14)  Bbb     0.0000     0.000     0.000     0.000 -0.0000  1.0000  0.0000
              Bcc     0.0000     0.000     0.000     0.000  0.0000  0.0000  1.0000
 
              Baa     0.0000     0.000     0.000     0.000  1.0000  0.0000  0.0000
     6 C(13)  Bbb     0.0000     0.000     0.000     0.000 -0.0000  1.0000  0.0000
              Bcc     0.0000     0.000     0.000     0.000  0.0000  0.0000  1.0000
 
              Baa     0.0000     0.000     0.000     0.000  1.0000  0.0000  0.0000
     7 C(13)  Bbb     0.0000     0.000     0.000     0.000 -0.0000  1.0000  0.0000
              Bcc     0.0000     0.000     0.000     0.000  0.0000  0.0000  1.0000
 
              Baa     0.0000    -0.000    -0.000    -0.000  1.0000  0.0000  0.0000
     8 O(17)  Bbb     0.0000    -0.000    -0.000    -0.000 -0.0000  1.0000  0.0000
              Bcc     0.0000    -0.000    -0.000    -0.000  0.0000  0.0000  1.0000
 
              Baa     0.0000     0.000     0.000     0.000  1.0000  0.0000  0.0000
     9 H(1)   Bbb     0.0000     0.000     0.000     0.000 -0.0000  1.0000  0.0000
              Bcc     0.0000     0.000     0.000     0.000  0.0000  0.0000  1.0000
 
              Baa     0.0000     0.000     0.000     0.000  1.0000  0.0000  0.0000
    10 H(1)   Bbb     0.0000     0.000     0.000     0.000 -0.0000  1.0000  0.0000
              Bcc     0.0000     0.000     0.000     0.000  0.0000  0.0000  1.0000
 
              Baa     0.0000     0.000     0.000     0.000  1.0000  0.0000  0.0000
    11 H(1)   Bbb     0.0000     0.000     0.000     0.000 -0.0000  1.0000  0.0000
              Bcc     0.0000     0.000     0.000     0.000  0.0000  0.0000  1.0000
 
              Baa     0.0000     0.000     0.000     0.000  1.0000  0.0000  0.0000
    12 H(1)   Bbb     0.0000     0.000     0.000     0.000 -0.0000  1.0000  0.0000
              Bcc     0.0000     0.000     0.000     0.000  0.0000  0.0000  1.0000
 
              Baa     0.0000     0.000     0.000     0.000  1.0000  0.0000  0.0000
    13 H(1)   Bbb     0.0000     0.000     0.000     0.000 -0.0000  1.0000  0.0000
              Bcc     0.0000     0.000     0.000     0.000  0.0000  0.0000  1.0000
 
              Baa     0.0000     0.000     0.000     0.000  1.0000  0.0000  0.0000
    14 H(1)   Bbb     0.0000     0.000     0.000     0.000 -0.0000  1.0000  0.0000
              Bcc     0.0000     0.000     0.000     0.000  0.0000  0.0000  1.0000
 
              Baa     0.0000     0.000     0.000     0.000  1.0000  0.0000  0.0000
    15 H(1)   Bbb     0.0000     0.000     0.000     0.000 -0.0000  1.0000  0.0000
              Bcc     0.0000     0.000     0.000     0.000  0.0000  0.0000  1.0000
 
              Baa     0.0000     0.000     0.000     0.000  1.0000  0.0000  0.0000
    16 H(1)   Bbb     0.0000     0.000     0.000     0.000 -0.0000  1.0000  0.0000
              Bcc     0.0000     0.000     0.000     0.000  0.0000  0.0000  1.0000
 
              Baa     0.0000     0.000     0.000     0.000  1.0000  0.0000  0.0000
    17 H(1)   Bbb     0.0000     0.000     0.000     0.000 -0.0000  1.0000  0.0000
              Bcc     0.0000     0.000     0.000     0.000  0.0000  0.0000  1.0000
 
              Baa     0.0000     0.000     0.000     0.000  1.0000  0.0000  0.0000
    18 H(1)   Bbb     0.0000     0.000     0.000     0.000 -0.0000  1.0000  0.0000
              Bcc     0.0000     0.000     0.000     0.000  0.0000  0.0000  1.0000
 
              Baa     0.0000     0.000     0.000     0.000  1.0000  0.0000  0.0000
    19 H(1)   Bbb     0.0000     0.000     0.000     0.000 -0.0000  1.0000  0.0000
              Bcc     0.0000     0.000     0.000     0.000  0.0000  0.0000  1.0000
 
              Baa     0.0000     0.000     0.000     0.000  1.0000  0.0000  0.0000
    20 H(1)   Bbb     0.0000     0.000     0.000     0.000 -0.0000  1.0000  0.0000
              Bcc     0.0000     0.000     0.000     0.000  0.0000  0.0000  1.0000
 
              Baa     0.0000     0.000     0.000     0.000  1.0000  0.0000  0.0000
    21 H(1)   Bbb     0.0000     0.000     0.000     0.000 -0.0000  1.0000  0.0000
              Bcc     0.0000     0.000     0.000     0.000  0.0000  0.0000  1.0000
 

 ---------------------------------------------------------------------------------

   1 Symmetry operations used in ECPInt.
 ECPInt:  NShTT=    3828 NPrTT=   13184 LenC2=    3789 LenP2D=   10653.
 LDataN:  DoStor=T MaxTD1= 6 Len=  172
 Calling FoFJK, ICntrl=    100127 FMM=F ISym2X=0 I1Cent= 0 IOpClX= 1 NMat=1 NMatS=1 NMatT=0.
 Full mass-weighted force constant matrix:
 Low frequencies ---   -0.0005    0.0005    0.0007    3.4626    5.4181   13.2701
 Low frequencies ---   53.4562   72.0248  107.9787
 Diagonal vibrational polarizability:
       11.4217757      15.6551862      10.0129774
 Harmonic frequencies (cm**-1), IR intensities (KM/Mole), Raman scattering
 activities (A**4/AMU), depolarization ratios for plane and unpolarized
 incident light, reduced masses (AMU), force constants (mDyne/A),
 and normal coordinates:
                      1                      2                      3
                      A                      A                      A
 Frequencies --     53.4533                71.9946               107.9682
 Red. masses --      3.8966                 2.9658                 1.7518
 Frc consts  --      0.0066                 0.0091                 0.0120
 IR Inten    --      1.1343                 0.6686                 0.9959
  Atom  AN      X      Y      Z        X      Y      Z        X      Y      Z
     1   6     0.00  -0.00   0.10    -0.02   0.18   0.06     0.01  -0.06  -0.08
     2   6     0.04  -0.05   0.02    -0.01  -0.06   0.02    -0.04  -0.01   0.02
     3   6     0.12  -0.14  -0.17    -0.17  -0.13  -0.07    -0.04  -0.02   0.01
     4   6    -0.02   0.10  -0.01     0.01  -0.13   0.02    -0.00   0.05   0.09
     5   7     0.01   0.11  -0.08     0.00  -0.07   0.04    -0.00  -0.00   0.09
     6   6     0.07   0.15  -0.14     0.01   0.08  -0.10     0.10   0.08  -0.03
     7   6    -0.09  -0.04   0.09     0.07  -0.02   0.06    -0.04  -0.02   0.03
     8   8    -0.14  -0.12   0.17     0.11   0.12  -0.01     0.01  -0.01  -0.10
     9   1    -0.06   0.06   0.25     0.08   0.26   0.18     0.00  -0.07  -0.09
    10   1    -0.02   0.10  -0.00    -0.13   0.28  -0.04     0.10  -0.06  -0.09
    11   1     0.05  -0.13   0.13    -0.02   0.18   0.06    -0.05  -0.11  -0.15
    12   1     0.07  -0.15   0.12     0.12  -0.11   0.08    -0.14  -0.03   0.04
    13   1     0.16  -0.26  -0.16    -0.14  -0.05  -0.02    -0.10  -0.09  -0.08
    14   1     0.15  -0.18  -0.21    -0.12  -0.32  -0.16    -0.09   0.02   0.10
    15   1     0.11  -0.04  -0.28    -0.36  -0.09  -0.13     0.08   0.00  -0.02
    16   1    -0.02   0.17  -0.08     0.02  -0.19   0.08     0.00   0.11   0.03
    17   1    -0.08   0.13   0.09     0.01  -0.16  -0.05     0.03   0.09   0.15
    18   1     0.08   0.16  -0.19     0.02   0.13  -0.13     0.04  -0.26   0.22
    19   1     0.05   0.14  -0.17    -0.03   0.02  -0.24     0.53   0.10  -0.28
    20   1     0.13   0.20  -0.10     0.05   0.20  -0.06    -0.19   0.44  -0.12
    21   1    -0.13  -0.07   0.14     0.07  -0.12   0.15    -0.13  -0.04   0.10
                      4                      5                      6
                      A                      A                      A
 Frequencies --    164.2218               227.0072               254.5578
 Red. masses --      1.3399                 1.0739                 1.2137
 Frc consts  --      0.0213                 0.0326                 0.0463
 IR Inten    --      0.3579                 0.0354                 0.2733
  Atom  AN      X      Y      Z        X      Y      Z        X      Y      Z
     1   6     0.01  -0.04  -0.07    -0.02   0.02   0.03    -0.01   0.04   0.01
     2   6    -0.03  -0.00   0.02    -0.00   0.00  -0.01    -0.01   0.03  -0.01
     3   6    -0.05  -0.01   0.02     0.02  -0.01  -0.04     0.06   0.04  -0.01
     4   6    -0.00   0.03   0.06    -0.00   0.00  -0.00    -0.01  -0.02  -0.01
     5   7     0.00   0.01   0.04    -0.01  -0.02   0.02    -0.02  -0.05   0.02
     6   6     0.09   0.03  -0.02    -0.00  -0.00  -0.01    -0.03  -0.02  -0.01
     7   6    -0.03  -0.01   0.02     0.00  -0.01   0.01    -0.01  -0.04   0.03
     8   8    -0.00  -0.00  -0.04     0.01   0.02  -0.00     0.02   0.03  -0.01
     9   1     0.02  -0.04  -0.09     0.16  -0.14  -0.33    -0.17   0.18   0.34
    10   1     0.10  -0.04  -0.08    -0.22  -0.25   0.34     0.11   0.28  -0.26
    11   1    -0.04  -0.07  -0.14    -0.02   0.47   0.12     0.01  -0.33  -0.03
    12   1    -0.08  -0.01   0.02     0.02  -0.00   0.00    -0.00   0.03  -0.01
    13   1    -0.09  -0.02  -0.03    -0.15  -0.21  -0.29    -0.11  -0.19  -0.27
    14   1    -0.08  -0.00   0.07    -0.13   0.10   0.23    -0.10   0.22   0.28
    15   1    -0.00  -0.00   0.01     0.37   0.05  -0.11     0.48   0.08  -0.05
    16   1    -0.00   0.06   0.03    -0.01   0.02  -0.02    -0.03  -0.04   0.02
    17   1     0.00   0.04   0.09     0.02   0.02   0.01     0.04  -0.02  -0.04
    18   1     0.18   0.36  -0.44     0.00   0.02  -0.03    -0.03   0.03  -0.04
    19   1    -0.37  -0.03   0.16    -0.03  -0.01  -0.02    -0.08  -0.04  -0.04
    20   1     0.53  -0.19   0.18     0.03   0.00   0.01    -0.01  -0.01   0.00
    21   1    -0.07  -0.03   0.06     0.00  -0.03   0.03    -0.01  -0.09   0.08
                      7                      8                      9
                      A                      A                      A
 Frequencies --    282.3289               307.1449               353.5139
 Red. masses --      2.2853                 2.6108                 2.9551
 Frc consts  --      0.1073                 0.1451                 0.2176
 IR Inten    --      0.3085                 4.0365                13.9281
  Atom  AN      X      Y      Z        X      Y      Z        X      Y      Z
     1   6     0.10   0.04  -0.04    -0.15  -0.09   0.09     0.06   0.04  -0.06
     2   6     0.03  -0.07   0.08    -0.06   0.03  -0.05    -0.01  -0.03   0.06
     3   6    -0.10  -0.08   0.11    -0.12   0.04  -0.03     0.02  -0.04   0.04
     4   6    -0.01  -0.04   0.04    -0.00   0.04  -0.03    -0.07   0.02   0.00
     5   7     0.04   0.08  -0.10     0.03  -0.01  -0.04    -0.01   0.04  -0.17
     6   6    -0.02   0.03  -0.03     0.18  -0.07  -0.03     0.11  -0.17  -0.02
     7   6     0.04   0.09  -0.12     0.10   0.05  -0.06    -0.08  -0.08   0.08
     8   8    -0.05  -0.06   0.05     0.03   0.04   0.12    -0.03   0.20   0.04
     9   1     0.21   0.09   0.03    -0.40  -0.09   0.17     0.21   0.05  -0.09
    10   1     0.15   0.12  -0.12    -0.15  -0.07   0.06     0.10   0.05  -0.07
    11   1     0.00   0.02  -0.15    -0.01  -0.27   0.22    -0.05   0.11  -0.17
    12   1     0.02  -0.07   0.08    -0.06   0.04  -0.06    -0.02  -0.04   0.07
    13   1    -0.35  -0.15  -0.18    -0.23   0.03  -0.15     0.04  -0.05   0.06
    14   1    -0.29  -0.02   0.46    -0.20   0.03   0.11     0.03  -0.01   0.03
    15   1     0.22  -0.07   0.11    -0.02   0.04  -0.03     0.03  -0.04   0.05
    16   1    -0.02  -0.06   0.06     0.00   0.07  -0.06    -0.14   0.07  -0.03
    17   1    -0.14  -0.07   0.02     0.03   0.06   0.00    -0.14   0.04   0.06
    18   1    -0.04   0.00   0.06     0.18  -0.22  -0.08     0.09  -0.39   0.01
    19   1     0.02   0.05   0.00     0.30  -0.03   0.00     0.31  -0.05   0.17
    20   1    -0.10  -0.01  -0.08     0.21  -0.03  -0.00     0.04  -0.27  -0.07
    21   1     0.12   0.24  -0.30     0.25   0.14  -0.22    -0.10  -0.38   0.37
                     10                     11                     12
                      A                      A                      A
 Frequencies --    364.8523               401.7280               434.7469
 Red. masses --      2.4428                 2.3849                 1.7272
 Frc consts  --      0.1916                 0.2268                 0.1923
 IR Inten    --     12.6457                 1.4205                 0.5798
  Atom  AN      X      Y      Z        X      Y      Z        X      Y      Z
     1   6    -0.00  -0.07   0.07     0.09  -0.07   0.03    -0.07   0.04  -0.01
     2   6     0.06   0.01  -0.05     0.03   0.11   0.11    -0.02  -0.12  -0.09
     3   6    -0.13   0.00  -0.01    -0.07   0.02  -0.04     0.01  -0.04   0.10
     4   6     0.06   0.00  -0.06    -0.01   0.13   0.06     0.02   0.11  -0.03
     5   7     0.09   0.15  -0.08     0.02  -0.09  -0.06     0.03  -0.02  -0.01
     6   6    -0.04   0.04   0.08    -0.13  -0.04  -0.09    -0.04   0.01  -0.02
     7   6    -0.04  -0.05   0.11     0.06  -0.07  -0.02     0.03  -0.04   0.02
     8   8     0.05  -0.04  -0.10     0.06   0.01   0.03     0.05  -0.01  -0.00
     9   1    -0.18  -0.09   0.10    -0.03  -0.14  -0.07     0.03   0.11   0.10
    10   1    -0.02  -0.08   0.09     0.30  -0.15   0.10    -0.27   0.12  -0.08
    11   1     0.11  -0.17   0.19     0.04  -0.16  -0.04    -0.02   0.12   0.06
    12   1     0.08   0.03  -0.06    -0.03   0.07   0.15    -0.03  -0.14  -0.07
    13   1    -0.30   0.09  -0.18    -0.11   0.00  -0.09     0.00   0.12   0.14
    14   1    -0.24  -0.11   0.20    -0.08  -0.19  -0.04    -0.01   0.12   0.13
    15   1    -0.08   0.00  -0.01    -0.18   0.15  -0.19     0.04  -0.23   0.31
    16   1     0.12  -0.06  -0.01    -0.21   0.30  -0.08     0.04   0.43  -0.33
    17   1    -0.01  -0.05  -0.14     0.09   0.26   0.28     0.05   0.30   0.36
    18   1    -0.05   0.07   0.17    -0.14   0.12   0.01    -0.04   0.09   0.01
    19   1    -0.05   0.09   0.23    -0.25  -0.09  -0.17    -0.11  -0.02  -0.05
    20   1    -0.12  -0.14   0.01    -0.21  -0.04  -0.13    -0.06  -0.00  -0.03
    21   1    -0.26  -0.26   0.41     0.11  -0.11  -0.01     0.02  -0.06   0.05
                     13                     14                     15
                      A                      A                      A
 Frequencies --    462.5911               729.5433               838.9948
 Red. masses --      3.4110                 4.0179                 2.5306
 Frc consts  --      0.4301                 1.2600                 1.0495
 IR Inten    --      4.7285                 7.8682                 2.3072
  Atom  AN      X      Y      Z        X      Y      Z        X      Y      Z
     1   6     0.18  -0.04   0.07    -0.07  -0.00  -0.04     0.14  -0.04   0.03
     2   6     0.20  -0.03  -0.10     0.00  -0.01  -0.03    -0.01  -0.11  -0.08
     3   6    -0.05  -0.01   0.02    -0.01   0.02  -0.01    -0.05   0.17  -0.13
     4   6     0.06   0.03  -0.12     0.25  -0.04   0.20    -0.08  -0.10   0.16
     5   7    -0.12  -0.10   0.13     0.18  -0.02  -0.02    -0.02   0.03  -0.02
     6   6     0.02  -0.02  -0.00     0.00   0.00  -0.01    -0.01  -0.01  -0.02
     7   6    -0.13   0.03  -0.03    -0.10  -0.11  -0.15     0.01   0.03   0.02
     8   8    -0.14   0.11   0.00    -0.19   0.14   0.02     0.02  -0.02   0.00
     9   1     0.07  -0.04   0.10    -0.18   0.02   0.04     0.19   0.06   0.22
    10   1     0.14  -0.03   0.07    -0.27  -0.00  -0.02    -0.17   0.03  -0.01
    11   1     0.27  -0.10   0.16     0.09   0.01   0.15     0.32   0.06   0.26
    12   1     0.31  -0.01  -0.12    -0.18  -0.03   0.00    -0.10  -0.11  -0.07
    13   1    -0.25   0.28  -0.11     0.04  -0.02   0.03     0.00   0.26  -0.06
    14   1    -0.17  -0.18   0.22     0.02   0.08  -0.05    -0.03   0.44  -0.17
    15   1    -0.14  -0.10   0.13     0.03   0.00   0.00     0.05   0.05   0.01
    16   1     0.13   0.14  -0.23     0.25  -0.08   0.24    -0.09   0.08  -0.01
    17   1     0.11   0.11   0.01     0.28  -0.08   0.10    -0.23  -0.01   0.41
    18   1     0.03  -0.10  -0.12    -0.03   0.28   0.24    -0.01  -0.07  -0.04
    19   1     0.06  -0.05  -0.11    -0.22  -0.10  -0.14     0.03   0.02   0.04
    20   1     0.12   0.14   0.08    -0.24  -0.06  -0.15     0.01  -0.05  -0.02
    21   1    -0.06   0.08  -0.11    -0.10  -0.14  -0.12    -0.00   0.03   0.03
                     16                     17                     18
                      A                      A                      A
 Frequencies --    895.0713               914.9176               927.0783
 Red. masses --      1.6976                 1.8005                 1.2707
 Frc consts  --      0.8013                 0.8880                 0.6435
 IR Inten    --      4.2275                 5.0140                 0.6860
  Atom  AN      X      Y      Z        X      Y      Z        X      Y      Z
     1   6     0.01  -0.01  -0.04    -0.03  -0.01  -0.04    -0.01   0.08   0.01
     2   6     0.03   0.02  -0.03     0.03   0.02   0.01    -0.01   0.02  -0.01
     3   6     0.04  -0.05  -0.02     0.01   0.01   0.08    -0.05  -0.04  -0.04
     4   6     0.02   0.12   0.08     0.09  -0.08   0.03     0.04  -0.04   0.02
     5   7    -0.03   0.02   0.02    -0.01   0.04   0.01     0.00   0.02   0.00
     6   6    -0.04  -0.10  -0.10    -0.04  -0.09  -0.10    -0.02  -0.04  -0.04
     7   6     0.00   0.07   0.05    -0.03   0.13   0.08    -0.01   0.05   0.03
     8   8     0.03  -0.03  -0.01    -0.00  -0.02  -0.02    -0.00  -0.01  -0.01
     9   1    -0.07   0.03   0.06    -0.07   0.03   0.04    -0.36  -0.12  -0.26
    10   1    -0.23   0.01  -0.03    -0.18   0.03  -0.06     0.38  -0.15   0.22
    11   1     0.16   0.05   0.15     0.04   0.02   0.05     0.01  -0.21  -0.03
    12   1    -0.26  -0.15   0.16     0.02   0.25  -0.24     0.28  -0.14   0.15
    13   1    -0.07   0.29  -0.05     0.01  -0.33  -0.01     0.12  -0.02   0.16
    14   1    -0.06  -0.07   0.15     0.07  -0.29  -0.04    -0.00   0.39  -0.09
    15   1    -0.05  -0.24   0.20    -0.05   0.33  -0.29     0.18  -0.25   0.21
    16   1    -0.01  -0.26   0.44     0.19   0.16  -0.19     0.08   0.05  -0.06
    17   1     0.08  -0.08  -0.37     0.08   0.05   0.32     0.05   0.01   0.12
    18   1    -0.04  -0.14  -0.14    -0.04  -0.21  -0.18    -0.02  -0.08  -0.06
    19   1    -0.02  -0.08  -0.07     0.03  -0.05  -0.03     0.01  -0.02  -0.01
    20   1    -0.01  -0.10  -0.08     0.02  -0.13  -0.07     0.00  -0.05  -0.03
    21   1    -0.04   0.09   0.06    -0.11   0.18   0.09    -0.05   0.07   0.04
                     19                     20                     21
                      A                      A                      A
 Frequencies --    969.4729               975.5926              1040.3659
 Red. masses --      1.6249                 1.6568                 1.6435
 Frc consts  --      0.8998                 0.9291                 1.0481
 IR Inten    --      1.8453                 3.5677                 0.8158
  Atom  AN      X      Y      Z        X      Y      Z        X      Y      Z
     1   6    -0.04  -0.06   0.11    -0.12   0.03  -0.03     0.00  -0.00   0.00
     2   6    -0.05  -0.06   0.05     0.10  -0.00   0.01    -0.00   0.00  -0.00
     3   6    -0.02   0.07  -0.06     0.12   0.03  -0.05     0.00  -0.00   0.00
     4   6     0.09   0.02  -0.05    -0.05  -0.08   0.08     0.00   0.00  -0.00
     5   7     0.02   0.01   0.02     0.00   0.00  -0.01    -0.02  -0.04   0.04
     6   6    -0.01  -0.05  -0.05    -0.00   0.01   0.01    -0.00   0.01  -0.01
     7   6    -0.01   0.04   0.03     0.00   0.00  -0.00     0.08   0.13  -0.16
     8   8    -0.01  -0.00  -0.01    -0.00  -0.00   0.00    -0.02  -0.03   0.04
     9   1     0.53   0.01   0.07    -0.14  -0.04  -0.16     0.01   0.00   0.00
    10   1     0.22   0.12  -0.11     0.07  -0.01  -0.02     0.01   0.00  -0.00
    11   1    -0.49   0.10  -0.37    -0.24  -0.05  -0.18    -0.01   0.00  -0.01
    12   1     0.02  -0.13   0.12     0.30  -0.05   0.05    -0.01   0.00  -0.00
    13   1    -0.04   0.18  -0.05    -0.20   0.51  -0.27    -0.01  -0.00  -0.00
    14   1    -0.04   0.15  -0.02    -0.08  -0.32   0.28     0.00   0.00  -0.00
    15   1    -0.02   0.01   0.01    -0.18  -0.07   0.07     0.00  -0.00   0.00
    16   1     0.22  -0.01  -0.03    -0.10   0.06  -0.04    -0.01   0.01  -0.01
    17   1     0.16   0.01  -0.09    -0.09   0.00   0.27     0.03   0.01  -0.00
    18   1    -0.01  -0.03  -0.03    -0.00  -0.01   0.01    -0.01  -0.03   0.02
    19   1    -0.04  -0.06  -0.06     0.02   0.03   0.03     0.01   0.05   0.08
    20   1    -0.03  -0.06  -0.06     0.01  -0.00   0.01     0.00  -0.07  -0.02
    21   1    -0.06   0.08   0.02    -0.00  -0.00   0.00    -0.35  -0.56   0.70
                     22                     23                     24
                      A                      A                      A
 Frequencies --   1099.1672              1133.4373              1150.0249
 Red. masses --      1.5357                 1.3994                 1.7254
 Frc consts  --      1.0932                 1.0592                 1.3445
 IR Inten    --     72.1117                17.4508                20.4589
  Atom  AN      X      Y      Z        X      Y      Z        X      Y      Z
     1   6     0.02   0.01   0.00    -0.03   0.01  -0.01     0.00  -0.04  -0.06
     2   6    -0.02  -0.01  -0.02     0.06  -0.06  -0.01     0.01   0.07   0.13
     3   6     0.01  -0.00   0.01    -0.03   0.04   0.02    -0.00  -0.01  -0.05
     4   6    -0.09  -0.00  -0.03    -0.01   0.06   0.03     0.03  -0.09  -0.10
     5   7     0.05  -0.01   0.02     0.01   0.05  -0.02     0.04  -0.01  -0.04
     6   6     0.13  -0.08  -0.01    -0.05  -0.09   0.06    -0.01  -0.03   0.08
     7   6    -0.02   0.08   0.05     0.02  -0.02  -0.03    -0.02   0.06   0.03
     8   8    -0.01  -0.01  -0.01     0.01  -0.00   0.01    -0.02  -0.00  -0.01
     9   1    -0.02  -0.01  -0.02    -0.06  -0.02  -0.06    -0.04   0.06   0.13
    10   1     0.06  -0.02   0.03     0.00  -0.01  -0.00    -0.31   0.01  -0.09
    11   1     0.04  -0.02   0.02    -0.06  -0.03  -0.05     0.11   0.10   0.10
    12   1     0.02   0.05  -0.08     0.22  -0.05  -0.03    -0.20  -0.10   0.32
    13   1    -0.02   0.01  -0.03     0.01  -0.11   0.02     0.03   0.16   0.04
    14   1     0.00  -0.05   0.02     0.03   0.04  -0.09    -0.05   0.14   0.05
    15   1    -0.02   0.01  -0.01     0.02   0.15  -0.11     0.03  -0.16   0.12
    16   1    -0.05  -0.01  -0.02     0.18  -0.06   0.13    -0.33   0.08  -0.22
    17   1    -0.13  -0.00  -0.02    -0.31  -0.05  -0.09     0.26   0.06   0.13
    18   1     0.09   0.48   0.40     0.01   0.10  -0.25     0.03   0.07  -0.14
    19   1    -0.36  -0.31  -0.29     0.02  -0.26  -0.45     0.03  -0.14  -0.26
    20   1    -0.34  -0.03  -0.25     0.13   0.49   0.26     0.09   0.31   0.19
    21   1    -0.11   0.10   0.07    -0.00  -0.12   0.08    -0.10   0.05   0.08
                     25                     26                     27
                      A                      A                      A
 Frequencies --   1163.7088              1196.5885              1264.1788
 Red. masses --      1.8970                 1.6862                 1.3814
 Frc consts  --      1.5136                 1.4225                 1.3008
 IR Inten    --      2.4371                 0.4768                18.9174
  Atom  AN      X      Y      Z        X      Y      Z        X      Y      Z
     1   6    -0.06  -0.03  -0.09    -0.04  -0.10   0.02     0.02  -0.02  -0.04
     2   6     0.15  -0.08   0.12     0.11   0.13  -0.05    -0.05   0.05   0.11
     3   6    -0.07   0.08   0.00    -0.07  -0.08  -0.03     0.02  -0.03  -0.06
     4   6     0.01   0.05  -0.05    -0.04   0.00   0.07     0.00  -0.01  -0.02
     5   7    -0.03  -0.04   0.03     0.00   0.00  -0.00    -0.03   0.03   0.04
     6   6     0.04   0.04  -0.04     0.00  -0.00  -0.00     0.00  -0.02  -0.03
     7   6    -0.01   0.00   0.01     0.00   0.00   0.00     0.01  -0.04  -0.03
     8   8     0.00  -0.00  -0.00     0.00  -0.00   0.00     0.01  -0.00   0.00
     9   1    -0.18   0.01   0.01     0.27   0.02   0.13    -0.06   0.05   0.11
    10   1    -0.35   0.00  -0.10    -0.15   0.15  -0.23    -0.12  -0.02  -0.01
    11   1     0.00   0.04   0.00    -0.19   0.18  -0.11     0.09   0.08   0.07
    12   1     0.35  -0.29   0.34     0.38   0.36  -0.29     0.03   0.20  -0.04
    13   1     0.05  -0.10   0.08     0.15  -0.11   0.20     0.02   0.18   0.01
    14   1     0.03   0.22  -0.18    -0.03   0.21  -0.08    -0.08   0.07   0.13
    15   1     0.10   0.21  -0.14     0.20  -0.26   0.18    -0.03  -0.16   0.10
    16   1    -0.05  -0.06   0.06    -0.18  -0.03   0.11     0.71   0.11  -0.18
    17   1    -0.18  -0.00  -0.09    -0.03   0.01   0.08    -0.43  -0.06   0.02
    18   1    -0.00  -0.00   0.19    -0.00   0.02   0.03    -0.01   0.02   0.05
    19   1    -0.06   0.10   0.21    -0.01  -0.01  -0.01    -0.04  -0.01   0.02
    20   1    -0.10  -0.25  -0.17    -0.01  -0.01  -0.01    -0.03  -0.03  -0.04
    21   1     0.02   0.03  -0.03    -0.01   0.01  -0.00     0.12  -0.11  -0.03
                     28                     29                     30
                      A                      A                      A
 Frequencies --   1319.7142              1323.3610              1357.0852
 Red. masses --      1.2844                 2.6894                 1.2955
 Frc consts  --      1.3179                 2.7750                 1.4057
 IR Inten    --      1.5117                31.3623                 5.4506
  Atom  AN      X      Y      Z        X      Y      Z        X      Y      Z
     1   6     0.01  -0.03  -0.04     0.02  -0.02  -0.04    -0.03  -0.03   0.00
     2   6    -0.09   0.01  -0.01    -0.10  -0.01   0.02    -0.00   0.10  -0.09
     3   6     0.02   0.01   0.02     0.02   0.00   0.00    -0.01   0.07   0.01
     4   6    -0.03   0.00   0.05    -0.12   0.02  -0.06     0.02  -0.03  -0.01
     5   7    -0.05   0.00  -0.06     0.23   0.05   0.15    -0.00   0.02   0.02
     6   6     0.02   0.00   0.02    -0.10  -0.04  -0.09     0.00  -0.00  -0.01
     7   6    -0.00   0.01   0.00     0.01  -0.06  -0.04     0.00  -0.01  -0.01
     8   8     0.00  -0.01  -0.00    -0.02   0.04   0.02     0.00   0.00   0.00
     9   1     0.12   0.07   0.14     0.04   0.06   0.11     0.18   0.03   0.05
    10   1    -0.01  -0.05  -0.02    -0.03  -0.06   0.02     0.15   0.03  -0.07
    11   1     0.17   0.05   0.15     0.14   0.02   0.10     0.06   0.09   0.11
    12   1     0.65  -0.16   0.15     0.50   0.01  -0.02    -0.04  -0.41   0.45
    13   1    -0.03  -0.05  -0.05    -0.04   0.01  -0.06     0.13  -0.36   0.05
    14   1     0.01  -0.07   0.03    -0.00  -0.01   0.05    -0.03  -0.38   0.06
    15   1    -0.07   0.04  -0.01    -0.10   0.01  -0.01     0.04  -0.13   0.22
    16   1     0.22   0.04  -0.00    -0.25  -0.01  -0.03     0.00   0.03  -0.07
    17   1     0.54   0.02  -0.12    -0.07   0.00  -0.10    -0.36  -0.04   0.11
    18   1     0.01   0.08   0.07    -0.10  -0.15  -0.07     0.00  -0.02  -0.01
    19   1    -0.03  -0.01   0.00     0.21   0.08   0.03    -0.03  -0.02  -0.03
    20   1    -0.02   0.08   0.01     0.22  -0.12   0.07    -0.02  -0.03  -0.02
    21   1     0.13  -0.07   0.01    -0.48   0.25  -0.05     0.01  -0.02  -0.01
                     31                     32                     33
                      A                      A                      A
 Frequencies --   1389.0103              1400.4113              1409.6560
 Red. masses --      1.5525                 1.4148                 1.3816
 Frc consts  --      1.7648                 1.6348                 1.6176
 IR Inten    --     12.6356                 0.9126                 6.3130
  Atom  AN      X      Y      Z        X      Y      Z        X      Y      Z
     1   6    -0.05   0.02  -0.05    -0.14   0.01  -0.05     0.02   0.02   0.01
     2   6    -0.05  -0.08   0.07     0.09  -0.00   0.02     0.06  -0.05   0.03
     3   6     0.00   0.07  -0.07    -0.03  -0.03   0.01    -0.03   0.09  -0.06
     4   6     0.10   0.05  -0.03    -0.06  -0.01   0.01    -0.09  -0.00   0.01
     5   7    -0.02  -0.04  -0.03     0.02   0.00   0.01     0.02   0.01   0.01
     6   6     0.01   0.03   0.03    -0.01  -0.01  -0.01    -0.02  -0.04  -0.03
     7   6    -0.01   0.03   0.02     0.00  -0.01  -0.00     0.01  -0.01  -0.01
     8   8     0.00  -0.00  -0.00    -0.00   0.00   0.00    -0.00   0.00   0.00
     9   1     0.20   0.14   0.12     0.44   0.16   0.07    -0.10  -0.05  -0.10
    10   1     0.18  -0.19   0.16     0.47  -0.14   0.07    -0.16   0.02   0.03
    11   1     0.18  -0.12   0.18     0.27  -0.07   0.38    -0.09  -0.11  -0.13
    12   1     0.20   0.29  -0.32    -0.27   0.02   0.00    -0.19   0.07  -0.09
    13   1     0.16  -0.19   0.05    -0.01   0.17   0.07     0.21  -0.28   0.12
    14   1    -0.13  -0.21   0.17     0.03   0.09  -0.09    -0.10  -0.35   0.07
    15   1    -0.04  -0.21   0.24     0.16   0.09  -0.12     0.14  -0.21   0.28
    16   1    -0.27  -0.17   0.20     0.17   0.10  -0.12     0.25   0.03  -0.05
    17   1    -0.19   0.06   0.10     0.14  -0.04  -0.12     0.39   0.02  -0.10
    18   1     0.02  -0.06  -0.05    -0.01   0.05   0.02    -0.03   0.26   0.13
    19   1    -0.03  -0.02  -0.06     0.05   0.03   0.04     0.20   0.09   0.15
    20   1    -0.03  -0.05  -0.02     0.03   0.02   0.02     0.11   0.10   0.07
    21   1    -0.02   0.03   0.02    -0.03   0.01  -0.01    -0.03   0.01  -0.01
                     34                     35                     36
                      A                      A                      A
 Frequencies --   1426.1995              1433.8375              1454.2049
 Red. masses --      1.2063                 1.3303                 1.3806
 Frc consts  --      1.4456                 1.6114                 1.7202
 IR Inten    --     22.9024                24.6688                44.0524
  Atom  AN      X      Y      Z        X      Y      Z        X      Y      Z
     1   6    -0.01  -0.01  -0.00    -0.01   0.01  -0.00    -0.01   0.01   0.00
     2   6    -0.02   0.02  -0.01     0.01  -0.01   0.01     0.01  -0.00   0.01
     3   6     0.02  -0.02   0.02    -0.00   0.00   0.00     0.01   0.00  -0.01
     4   6     0.06   0.00  -0.03    -0.04  -0.01  -0.05     0.02  -0.02  -0.01
     5   7    -0.03  -0.01  -0.01     0.04   0.08   0.08    -0.06   0.09   0.04
     6   6    -0.03  -0.07  -0.06    -0.01  -0.02  -0.03     0.05  -0.05  -0.04
     7   6     0.01   0.01   0.02    -0.01   0.01   0.00     0.02  -0.07  -0.05
     8   8    -0.01  -0.00  -0.01    -0.05  -0.01  -0.03     0.04   0.01   0.02
     9   1     0.04   0.01   0.01     0.05   0.01  -0.01     0.12  -0.03  -0.12
    10   1     0.07   0.01  -0.03    -0.00  -0.02   0.02    -0.05   0.04  -0.03
    11   1     0.04   0.04   0.06     0.03  -0.05   0.02     0.05  -0.14   0.05
    12   1     0.03  -0.02   0.03    -0.02   0.01  -0.01    -0.02   0.01  -0.00
    13   1    -0.06   0.02  -0.06    -0.02  -0.02  -0.03     0.05  -0.13  -0.00
    14   1     0.02   0.13   0.01     0.02   0.01  -0.03    -0.06   0.13   0.12
    15   1    -0.12   0.04  -0.06    -0.00  -0.01   0.02    -0.21  -0.01  -0.00
    16   1    -0.09  -0.17   0.15    -0.12  -0.20   0.14    -0.15  -0.01  -0.01
    17   1    -0.16   0.09   0.24     0.16   0.16   0.24     0.14   0.03   0.05
    18   1    -0.04   0.55   0.29    -0.01  -0.12  -0.06     0.03  -0.19  -0.01
    19   1     0.35   0.18   0.34    -0.09  -0.04  -0.04    -0.46  -0.01   0.39
    20   1     0.18   0.24   0.12    -0.05  -0.03  -0.05    -0.21   0.51  -0.05
    21   1     0.06  -0.01   0.02     0.74  -0.44   0.02    -0.24   0.08  -0.05
                     37                     38                     39
                      A                      A                      A
 Frequencies --   1460.4407              1462.2017              1470.5874
 Red. masses --      1.1186                 1.0754                 1.0884
 Frc consts  --      1.4057                 1.3547                 1.3868
 IR Inten    --     13.6900                 4.5217                 1.0806
  Atom  AN      X      Y      Z        X      Y      Z        X      Y      Z
     1   6     0.02   0.01  -0.03     0.00   0.02   0.02     0.01   0.02   0.00
     2   6    -0.01   0.00  -0.01    -0.02   0.00  -0.01    -0.03   0.02  -0.02
     3   6    -0.02  -0.00   0.01     0.00  -0.02  -0.03    -0.02  -0.02   0.00
     4   6     0.04  -0.01   0.03     0.03  -0.00   0.04    -0.01   0.00  -0.04
[...]
 0009261,0.00011844,-0.00010341,0.00252361,-0.01240626,-0.00559665,-0.0
 7081164,0.29122943,0.02069157,-0.07498900,-0.07126303,0.00629709,-0.02
 231324,-0.00823166,-0.00026281,-0.00159984,0.00142203,-0.00136013,-0.0
 0045736,0.00026613,-0.00017016,0.00039798,-0.00009778,-0.00001599,-0.0
 0011037,-0.00022688,0.00002112,-0.00024272,0.00007973,0.00002692,0.000
 10126,-0.00006947,-0.00573635,0.02285716,0.00901813,-0.02704091,0.0828
 2913,0.07538437,-0.22968986,-0.10619563,-0.07783793,-0.01766224,-0.009
 71147,-0.00874443,0.00082102,0.00045795,-0.00120051,-0.00086592,0.0010
 7602,0.00431032,-0.00146763,-0.00167177,0.00004140,0.00007517,-0.00039
 597,-0.00013591,0.00004813,0.00110194,-0.00043944,-0.00040681,-0.00037
 014,0.00055414,-0.00786929,-0.00483166,-0.00214348,0.00821266,0.004744
 79,0.00372660,0.24729854,-0.10656964,-0.10703929,-0.04461917,0.0003591
 1,-0.00147618,-0.00040307,-0.00013339,-0.00013357,-0.00058233,0.000395
 15,0.00030926,0.00052371,-0.00026255,0.00044930,-0.00002721,-0.0000965
 4,-0.00009474,0.00006308,0.00016178,0.00014425,-0.00019651,-0.00011228
 ,-0.00003174,0.00013021,0.01448375,0.00831545,0.00516649,-0.02379069,-
 0.01169102,-0.00901281,0.11509596,0.11027404,-0.07934040,-0.04531785,-
 0.07831396,0.02042002,0.01280229,0.00831540,0.00065104,0.00004390,0.00
 171422,0.00150042,-0.00018033,-0.00391244,0.00198554,0.00116871,0.0001
 5716,-0.00009757,0.00023233,0.00011333,0.00006882,-0.00072294,0.000395
 13,0.00017527,0.00021636,-0.00038163,-0.01841304,-0.01272320,-0.007460
 67,-0.00723009,-0.00296159,-0.00391583,0.08135871,0.04805868,0.0826636
 8,-0.00667364,0.02163860,0.00800459,-0.06121478,0.05561035,0.01655432,
 -0.00307360,0.01076739,0.00301513,0.00554808,-0.02725138,-0.00967264,0
 .00168294,0.00160772,-0.00005678,-0.00060724,-0.00028242,0.00069151,0.
 00005253,-0.00084321,0.00009987,-0.00009450,0.00023646,0.00016819,0.00
 082855,-0.00050721,-0.00029640,-0.00282475,-0.00043151,0.00369618,0.00
 041769,0.00028226,-0.00076266,0.07013033,-0.00118756,0.00331148,0.0013
 4766,0.05563387,-0.27007268,-0.07096735,0.00381660,-0.01526842,-0.0038
 5264,0.00309782,-0.01347376,-0.00482166,-0.00007029,0.00060724,-0.0000
 2208,0.00042674,-0.00053370,-0.00105586,0.00014596,-0.00040415,-0.0001
 0881,-0.00024122,0.00027917,0.00025815,0.00028053,0.00039495,-0.000407
 73,-0.00066873,0.00136151,0.00070719,0.00038850,0.00043536,-0.00020143
 ,-0.05984986,0.29121213,0.00629476,-0.02160938,-0.00844335,0.01644568,
 -0.07068129,-0.06903099,-0.00664946,0.02594243,0.00679478,0.00270651,-
 0.01202090,-0.00483475,0.00008321,0.00037722,0.00016855,0.00060317,-0.
 00000682,0.00011151,0.00008419,0.00019085,-0.00027616,-0.00020248,-0.0
 0002407,0.00024379,-0.00063907,-0.00017026,0.00030015,0.00341557,0.000
 47449,-0.00304823,-0.00037953,0.00049064,0.00096029,-0.01881078,0.0756
 7661,0.07972359,0.00075993,-0.00017721,0.00102295,-0.00846360,-0.00467
 252,-0.00199480,-0.23668367,-0.09924045,-0.08197268,-0.00001919,0.0019
 0058,-0.00095945,-0.00023058,-0.00018929,-0.00066471,0.00019360,-0.000
 38569,-0.00015057,0.00050067,0.00084014,-0.00011151,-0.00030467,-0.000
 18023,0.00021815,0.00009357,0.00024559,0.00009979,-0.00001419,0.000121
 92,-0.00004497,0.00045586,-0.00000994,-0.00036110,-0.00005152,0.000159
 82,0.00013506,0.25226694,0.00049006,0.00050387,-0.00053366,0.01549575,
 0.00776796,0.00658743,-0.10003517,-0.09763556,-0.04337336,0.00078677,-
 0.00176531,0.00311236,-0.00024178,0.00026503,-0.00020662,0.00001421,0.
 00007062,0.00003560,0.00023266,-0.00062746,-0.00007362,-0.00004158,0.0
 0018958,-0.00000219,0.00016316,-0.00004040,-0.00017257,-0.00017098,-0.
 00008047,-0.00002583,-0.00025910,0.00006437,-0.00014644,0.00005098,0.0
 0063954,-0.00076932,0.10652606,0.10137243,-0.00088558,-0.00119337,0.00
 130352,-0.02045796,-0.01275432,-0.00965712,-0.08092729,-0.04246396,-0.
 07990572,-0.00030881,0.00432555,-0.00477008,0.00097753,-0.00028641,0.0
 0117025,-0.00017500,0.00001782,0.00004287,-0.00006109,0.00008617,-0.00
 038816,-0.00017909,-0.00011226,0.00032060,0.00021038,0.00009578,0.0003
 8618,0.00000980,-0.00003917,-0.00008912,0.00062170,0.00052633,-0.00037
 277,0.00043000,0.00013214,0.00088167,0.09017143,0.04372697,0.08567695,
 -0.00073507,0.00072456,-0.00173718,0.00959105,-0.00085227,-0.00899207,
 -0.17534080,-0.00493943,0.13919239,0.00012410,-0.00056938,0.00024578,-
 0.00160684,0.00041352,-0.00138058,-0.00040858,-0.00027006,-0.00051351,
 -0.00074734,-0.00060726,-0.00017044,0.00029529,0.00019324,-0.00010647,
 0.00046080,0.00025884,-0.00053068,-0.00008124,-0.00004361,-0.00013497,
 0.00015035,0.00023950,-0.00010019,0.00055107,-0.00025217,0.00064505,-0
 .01539945,0.00091861,0.01860158,0.18648560,0.00197095,-0.00162300,0.00
 254432,-0.01306087,-0.00098971,0.01177929,-0.00510941,-0.04660806,0.00
 557993,-0.00038937,0.00004562,-0.00048199,0.00003704,-0.00033180,-0.00
 036690,0.00011017,0.00058137,0.00055041,-0.00012539,0.00067033,-0.0006
 6553,-0.00004854,-0.00025870,0.00031975,-0.00059729,0.00033622,0.00102
 971,-0.00013000,0.00023633,0.00031096,0.00031166,0.00003843,-0.0002064
 9,-0.00058496,0.00031595,-0.00043703,-0.00843396,-0.00093229,0.0107811
 0,0.00554189,0.04693577,-0.00359227,0.00308545,-0.00330272,0.01723102,
 -0.00148175,-0.01639543,0.13736112,0.00600919,-0.19290478,0.00200319,0
 .00014910,-0.00067182,0.00079391,-0.00011663,0.00152018,-0.00050162,0.
 00052226,0.00026149,-0.00133463,-0.00114705,0.00018561,0.00023007,0.00
 005080,-0.00030901,0.00116698,0.00027236,-0.00109262,-0.00021647,-0.00
 005287,0.00029066,0.00005556,0.00004974,0.00020280,-0.00002806,0.00006
 633,0.00086022,-0.00864669,0.00011567,0.00953426,-0.14839256,-0.008905
 64,0.20729326,0.00015263,-0.00098454,0.00017797,-0.00392079,0.01108314
 ,0.00316519,-0.05924057,0.05478487,0.01645285,0.00069811,0.00125454,0.
 00108233,-0.00002921,-0.00071712,0.00006158,-0.00000867,0.00031064,0.0
 0014724,-0.00039793,0.00083585,0.00019866,0.00018295,-0.00027147,-0.00
 008206,-0.00013003,-0.00002861,-0.00001154,0.00039887,-0.00006854,-0.0
 0002201,-0.00001322,-0.00010429,-0.00008514,-0.00020702,0.00120901,-0.
 00213581,0.00726296,-0.02470165,-0.00671521,-0.00404628,0.02040028,0.0
 0424730,0.05910082,0.00009985,0.00070195,-0.00115444,0.00388253,-0.016
 72808,-0.00456359,0.05447482,-0.28119732,-0.06929210,-0.00134047,0.000
 75406,-0.00073522,0.00065744,0.00043977,0.00009673,-0.00007875,0.00000
 671,-0.00015598,0.00016590,-0.00086159,0.00004955,0.00001536,0.0002468
 9,-0.00003926,-0.00009826,0.00044686,0.00012160,-0.00048832,0.00010085
 ,0.00082051,0.00007516,-0.00006172,0.00000791,0.00109704,-0.00050124,0
 .00335559,0.00393489,-0.01077754,-0.00257635,-0.00105811,0.00244883,0.
 00106436,-0.06177754,0.30401996,-0.00065333,0.00064383,0.00200441,-0.0
 0566492,0.02545457,0.00676843,0.01653690,-0.06978923,-0.06632170,0.000
 59283,0.00074022,0.00154785,0.00023981,0.00014779,0.00001945,-0.000075
 98,-0.00005243,-0.00009463,-0.00013256,-0.00064171,0.00014328,0.000079
 23,0.00019036,-0.00011233,-0.00005065,-0.00031823,0.00016288,0.0002016
 8,-0.00065408,-0.00023641,0.00008841,-0.00004632,-0.00007533,-0.002032
 01,0.00303790,-0.00388567,0.00349841,-0.00913787,-0.00374930,0.0027053
 9,-0.02139661,-0.00560307,-0.01573014,0.07232441,0.06947414,0.00177203
 ,-0.00087927,-0.00106375,0.00440930,-0.02470226,-0.00914602,0.00138546
 ,-0.00091991,0.00091810,-0.05997401,0.05142239,0.02091461,-0.01062399,
 0.02353303,0.01126863,-0.00224400,-0.00255496,0.00309873,-0.00015275,0
 .00435277,0.00042196,0.00007076,-0.00095777,-0.00024867,-0.00000054,0.
 00009862,0.00010323,-0.00040690,0.00069072,0.00029065,0.00014887,0.000
 26631,-0.00003143,-0.00419928,-0.00237874,-0.00215773,0.00005434,0.000
 10773,0.00029431,-0.00003373,0.00011613,-0.00005039,-0.00012365,0.0007
 4405,0.00007837,0.07251339,0.00098204,0.00054666,-0.00012134,0.0021781
 8,-0.01420387,-0.00464761,0.00060934,0.00110843,0.00090059,0.05880155,
 -0.26635580,-0.08440647,0.00144609,0.00512311,-0.00007451,-0.00034336,
 0.00047587,0.00018581,-0.00414082,-0.00269646,0.00415755,0.00078385,0.
 00101441,-0.00061432,-0.00002973,-0.00011256,-0.00006552,-0.00078451,0
 .00017639,0.00044279,-0.00006666,0.00042144,0.00016824,-0.00269006,0.0
 0014469,-0.00102739,-0.00006856,0.00021976,0.00017176,-0.00004035,-0.0
 0004643,0.00006847,-0.00033631,0.00045238,-0.00061717,-0.05762019,0.28
 631417,0.00057302,0.00095395,0.00049969,0.00194721,-0.01282801,-0.0049
 3883,0.00103973,-0.00089629,0.00048755,0.02130987,-0.07681900,-0.07946
 631,0.00929208,-0.02136253,-0.01188332,0.00212232,0.00303390,-0.001829
 01,0.00063352,-0.00429498,0.00036285,-0.00041486,0.00091871,0.00015116
 ,-0.00018247,0.00011094,-0.00002774,-0.00008931,0.00001320,0.00048172,
 0.00002714,0.00019803,-0.00017627,-0.00186073,-0.00101412,-0.00033796,
 0.00006504,0.00028832,0.00019761,-0.00000183,0.00000521,-0.00000121,-0
 .00038184,0.00038995,-0.00019337,-0.02936806,0.09102893,0.08682474,0.0
 0093010,0.00097762,-0.00136413,-0.00950996,0.01569072,-0.01893097,-0.0
 0456497,-0.00384252,-0.00110181,-0.08105140,0.05490279,-0.07258912,0.0
 0348201,-0.01941926,0.02708754,0.00157393,-0.00268284,-0.00027017,0.00
 060323,0.00363410,0.00313307,-0.00217984,-0.00177585,0.00031354,-0.000
 39468,-0.00058002,0.00079064,0.00000902,-0.00002372,0.00002930,0.00028
 619,-0.00018772,0.00029547,0.00097460,-0.00042435,0.00029337,-0.000466
 60,0.00074383,-0.00160931,0.00018720,-0.00007829,-0.00000772,0.0001673
 2,-0.00013313,0.00038082,-0.00238712,0.00261466,-0.00509429,0.09219931
 ,0.00038040,0.00032606,-0.00062838,-0.00714884,0.00734574,-0.01136885,
 -0.00230735,-0.00080053,-0.00042951,0.05298801,-0.12807929,0.10598441,
 -0.00293590,-0.00320204,0.00378797,-0.00042748,0.00095368,-0.00165639,
 0.00086252,0.00094832,0.00168167,-0.00103396,-0.00011583,0.00016643,0.
 00024897,0.00007766,0.00016193,-0.00001561,-0.00004096,0.00015232,0.00
 015009,0.00000528,-0.00017325,0.00069046,0.00073255,-0.00003884,-0.000
 35717,0.00059171,-0.00052111,0.00015467,-0.00007419,0.00002930,-0.0002
 6040,0.00031388,-0.00013082,0.00893207,-0.01296669,0.02039712,-0.04985
 111,0.13330111,0.00100900,0.00007552,0.00059450,-0.00627951,0.00813969
 ,-0.01060055,-0.00198597,-0.00209711,0.00030224,-0.07121509,0.10336474
 ,-0.19072275,0.00544584,0.01810123,-0.02163150,-0.00153007,0.00204707,
 0.00111076,-0.00220712,-0.00600828,-0.00204875,0.00221030,0.00178789,-
 0.00092145,-0.00026278,-0.00002080,0.00059046,-0.00003521,-0.00012983,
 -0.00000521,0.00007720,-0.00030448,0.00011776,0.00046017,0.00008095,0.
 00013047,-0.00031286,0.00049414,-0.00053874,0.00019175,0.00002849,0.00
 014175,-0.00000877,0.00012033,0.00004174,0.00381588,-0.00602451,0.0097
 9580,0.07003546,-0.11867888,0.21320382,-0.00007984,0.00005352,-0.00002
 740,0.00021438,-0.00011610,0.00013861,0.00002526,-0.00002992,0.0000969
 0,-0.00008772,0.00240842,-0.00094534,-0.01278475,0.00070703,0.00879461
 ,-0.23711156,-0.06546496,0.11583132,-0.00150021,-0.00259478,0.00319647
 ,0.00102420,-0.00236183,-0.00210037,0.00000368,0.,0.00000961,-0.000008
 96,-0.00002793,0.00001782,-0.00002084,-0.00002494,0.00001143,-0.000027
 78,0.00013230,-0.00007243,-0.00000753,0.00000078,-0.00002022,-0.000008
 67,-0.00003945,0.00000721,0.00000897,0.00001417,0.00000491,-0.00035442
 ,-0.00029534,0.00045317,0.00009987,-0.00013962,0.00009628,0.25332648,0
 .00010286,0.00014010,0.00004550,-0.00031457,-0.00039604,-0.00010555,0.
 00002734,0.00007471,0.00000621,0.00084786,-0.00506367,-0.00005220,0.02
 735833,0.00616101,-0.01731424,-0.07645815,-0.07306981,0.04671375,0.004
 67457,0.00191718,-0.00413545,-0.00268560,-0.00304083,0.00216587,-0.000
 00933,-0.00001675,0.00000021,-0.00005951,0.00003482,0.00004682,0.00002
 313,0.00002636,-0.00001284,0.00005603,0.00027769,0.00008419,0.00000516
 ,-0.00001983,0.00002501,0.00002517,0.00000553,0.00004186,-0.00001920,0
 .00003069,-0.00003659,0.00099528,-0.00021022,-0.00102521,-0.00025426,0
 .00004530,-0.00002540,0.06995666,0.08013260,0.00009276,0.00026914,0.00
 005682,-0.00030900,-0.00055369,-0.00010393,0.00011014,0.00005174,0.000
 07206,0.00044128,-0.00272251,-0.00011903,0.01255327,0.00106673,-0.0106
 0378,0.11505016,0.03962123,-0.11922664,0.00178802,0.00153036,-0.000088
 72,-0.00161835,0.00206042,-0.00070146,-0.00001574,-0.00001708,0.000017
 00,-0.00008335,0.00000712,0.00007784,0.00003815,0.00001142,-0.00002201
 ,-0.00002750,0.00039631,0.00002014,0.00002843,-0.00000899,0.00002047,0
 .00002237,-0.00010418,0.00002042,-0.00004175,0.00004433,0.00000370,0.0
 0075052,0.00007099,-0.00027672,-0.00003703,-0.00006447,0.00029693,-0.1
 2924466,-0.04005924,0.12730668,-0.00001973,-0.00011829,0.00000452,-0.0
 0020617,0.00024382,0.00008803,0.00013427,0.00004965,-0.00013407,0.0007
 2009,0.00071208,-0.00212360,-0.00419419,0.01611251,-0.00689583,-0.0646
 5935,0.03981002,-0.04954754,-0.00417995,-0.00189058,0.00317805,0.00133
 749,-0.00160829,-0.00219541,-0.00002437,-0.00000438,0.00006014,0.00004
 966,-0.00001926,-0.00003745,0.00001017,0.00000522,0.00001305,-0.000045
 21,-0.00018823,-0.00018699,-0.00000119,-0.00002392,0.00005126,0.000084
 54,-0.00007919,0.00010528,-0.00000618,-0.00006560,0.00007123,0.0002026
 4,-0.00024074,0.00004719,0.00011792,-0.00033680,0.00056485,0.01088172,
 -0.01497149,0.01778999,0.06370039,0.00009415,0.00004383,0.00009169,0.0
 0031232,0.00009531,-0.00028461,-0.00003840,0.00011345,-0.00002207,-0.0
 0227851,0.00057787,0.00180002,0.00827624,-0.02994489,0.01630807,0.0402
 4480,-0.14742046,0.12203574,0.00613140,0.00130448,-0.00193769,-0.00120
 289,-0.00028882,0.00107537,0.00000082,0.00000511,-0.00001904,-0.000014
 91,0.00000192,0.00000216,0.00003487,0.00001214,-0.00003649,0.00017717,
 -0.00008518,0.00000970,0.00003224,0.00003021,-0.00003813,0.00001440,-0
 .00012462,-0.00005494,-0.00010868,-0.00000033,0.00004429,-0.00032975,0
 .00017532,-0.00020274,0.00057328,0.00032490,-0.00100798,0.00277301,-0.
 00408053,0.00422089,-0.05051815,0.17027834,0.00006677,-0.00003577,-0.0
 0000567,-0.00010251,0.00034535,-0.00031182,0.00008597,-0.00008354,-0.0
 0012821,0.00016559,-0.00130213,0.00243746,0.00643279,-0.01322065,0.014
 63715,-0.05114806,0.12747505,-0.20034548,0.00213270,-0.00151266,-0.002
 31887,-0.00054347,0.00099626,0.00123057,-0.00001113,0.00001198,0.00004
 108,0.00001535,-0.00000459,-0.00000061,-0.00001030,0.00000233,-0.00001
 097,-0.00022199,0.00000593,-0.00014865,-0.00003278,0.00002381,-0.00000
 322,0.00007260,-0.00011493,0.00007490,-0.00003477,0.00000676,0.0000831
 9,-0.00011027,-0.00003116,0.00027688,-0.00104002,0.00084541,-0.0000943
 3,-0.00608427,0.00627337,-0.00886649,0.05398498,-0.13130286,0.20711845
 ,0.00018514,0.00009078,0.00002403,-0.00046365,-0.00058912,-0.00008997,
 0.00004310,-0.00012364,0.00037928,0.00097725,-0.00010839,0.00020258,0.
 01504016,0.01105991,0.01336013,-0.16025025,-0.07685818,-0.10850217,-0.
 00177593,-0.00033073,0.00183862,0.00159711,-0.00045774,-0.00034244,-0.
 00001620,-0.00000359,-0.00002792,0.00001088,0.00003571,0.00003269,0.00
 004039,-0.00000323,-0.00002891,-0.00098488,0.00006899,0.00054052,0.000
 04880,-0.00001350,-0.00003336,0.00045347,0.00008449,-0.00041258,0.0001
 4700,-0.00004708,-0.00006528,-0.00010370,0.00004662,-0.00014875,-0.000
 18047,0.00008633,-0.00000188,-0.01362257,-0.00872339,-0.01758725,-0.00
 461947,-0.00347746,-0.00281988,0.16426217,0.00018407,0.00017286,0.0002
 1959,0.00014528,0.00028105,-0.00031627,0.00026640,0.00018499,-0.000331
 34,-0.00184212,-0.00023969,0.00141473,-0.01268842,-0.02696925,-0.01968
 689,-0.07504973,-0.09590275,-0.06983766,0.00301134,0.00352275,-0.00647
 936,-0.00199771,-0.00010958,0.00221706,-0.00004108,-0.00002740,0.00004
 989,-0.00008012,-0.00001271,0.00003902,0.00006566,0.00001442,-0.000056
 20,-0.00002931,0.00038209,0.00011812,-0.00005214,0.00000926,0.00008186
 ,0.00014642,-0.00045924,0.00023098,-0.00022429,0.00004504,0.00017138,0
 .00016804,-0.00006077,-0.00002919,0.00040897,0.00003255,-0.00027402,-0
 .00494378,-0.00333996,-0.00573965,0.01270618,0.01001119,0.01214081,0.0
 7901787,0.11309781,0.00005052,0.00047624,0.00004500,0.00020078,-0.0006
 3381,-0.00007331,0.00011580,0.00020611,0.00039484,-0.00220118,-0.00083
 155,0.00079249,-0.00096618,-0.01426972,-0.00629067,-0.10710276,-0.0702
 3133,-0.15086406,0.00149163,0.00302553,-0.00255797,-0.00176637,-0.0005
 3394,0.00058635,-0.00001451,-0.00004384,0.00000176,-0.00015889,0.00001
 573,0.00014918,0.00002068,-0.00002474,-0.00002261,0.00063235,0.0006933
 2,-0.00016837,0.00003237,-0.00000715,-0.00002556,0.00028885,-0.0001787
 1,-0.00012337,-0.00012527,0.00009016,-0.00005859,0.00029798,0.00000243
 ,0.00010477,-0.00014515,0.00020414,-0.00009102,0.00986209,0.00717439,0
 .01211419,-0.01533696,-0.01020513,-0.01328728,0.11442010,0.08529181,0.
 15916281,0.00008555,0.00002453,0.00006726,0.00039027,-0.00043716,-0.00
 028002,-0.00011425,0.00013173,0.00005071,-0.00087588,-0.00241836,-0.00
 048507,0.00787738,-0.00323247,0.00242001,0.00332892,-0.00190663,0.0035
 0596,-0.10514578,0.08359226,0.04132236,-0.01385784,0.01535482,0.031951
 64,-0.00000750,0.00000687,-0.00000245,0.00001341,-0.00000508,-0.000004
 21,0.00003078,0.00000615,-0.00002922,-0.00018160,-0.00009897,-0.000012
 79,0.00000551,-0.00004293,0.00000493,0.00002451,0.00010411,-0.00001865
 ,0.00000393,-0.00007394,-0.00007311,0.00004729,-0.00080569,0.00003184,
 0.00010434,0.00032072,-0.00006748,0.00003029,-0.00057688,0.00029954,0.
 00071691,-0.00069596,-0.00079730,-0.00078834,0.00082847,0.00040412,0.1
 0831209,-0.00010175,-0.00005477,-0.00006198,-0.00051638,0.00014604,0.0
 0037376,0.00028661,-0.00018516,-0.00005842,0.00276546,-0.00093678,-0.0
 0291291,0.01434694,-0.03268505,-0.01314745,-0.00271223,-0.00144166,0.0
 0342891,0.07397675,-0.18765912,-0.06863243,0.00285750,0.01713256,-0.00
 269014,0.00000372,0.00000656,-0.00002593,-0.00007635,0.00002994,0.0000
 4388,-0.00002333,0.00001817,0.00004062,0.00025547,0.00024479,0.0000654
 6,0.00000077,0.00015453,0.00001460,0.00000183,-0.00016636,0.00000299,-
 0.00027571,0.00011995,0.00006631,-0.00108430,0.00048016,0.00113385,-0.
 00029292,0.00028078,0.00033124,-0.00000724,0.00039165,-0.00008087,0.00
 042544,-0.00102924,-0.00051876,0.00024533,-0.00063266,-0.00021992,-0.0
 9007560,0.20578566,-0.00006065,-0.00004962,-0.00006678,0.00008746,-0.0
 0009498,0.00021979,0.00012109,-0.00012725,-0.00005756,-0.00096721,0.00
 276557,-0.00062003,0.00247656,0.00522291,0.00822871,0.00312241,0.00166
 173,0.00328941,0.04160947,-0.07901971,-0.09946796,0.03250334,-0.014495
 92,-0.01193122,-0.00000070,0.00001030,-0.00000965,0.00000129,0.0000068
 0,0.00001446,-0.00002849,-0.00000402,0.00002472,0.00001725,0.00004917,
 -0.00002102,-0.00001953,0.00007332,-0.00003460,0.00009470,-0.00007115,
 0.00001848,-0.00015882,0.00002477,0.00008133,-0.00007665,0.00043244,-0
 .00005202,-0.00016948,0.00027979,0.00032808,-0.00002574,0.00018955,0.0
 0000252,0.00049930,-0.00047625,-0.00037809,-0.00073754,0.00077536,0.00
 021145,-0.07828806,0.08284718,0.10021996\\0.00000216,0.00001016,0.0000
 0965,0.00007630,-0.00000463,0.00005109,-0.00003051,-0.00000538,0.00000
 204,-0.00003551,-0.00000405,-0.00001489,-0.00000295,0.00004287,-0.0000
 0440,-0.00000631,-0.00004581,-0.00000494,-0.00000700,-0.00003067,0.000
 02860,0.00000326,0.00001300,-0.00000645,-0.00000186,0.00000012,-0.0000
 0460,-0.00000207,0.00000015,-0.00000652,-0.00000057,-0.00000650,-0.000
 00034,-0.00001935,-0.00000395,0.00000005,0.00000636,0.00000399,-0.0000
 1437,-0.00000989,0.00000079,-0.00001933,0.00000256,0.00000989,0.000001
 36,0.00000763,-0.00000220,-0.00000124,0.00000122,-0.00000067,-0.000011
 25,0.00000388,0.00000599,0.00000094,-0.00000030,0.00000643,-0.00000063
 ,0.00001265,0.00001324,-0.00000366,0.00000030,-0.00000277,-0.00000111\
 \\@
 The archive entry for this job was punched.



 IN THIS SHORT LIFE

 THAT ONLY LASTS AN HOUR

 HOW MUCH, HOW LITTLE, IS WITHIN OUR POWER....


 EMILY DICKINSON BOLTS OF MELODY NO. 521
 Job cpu time:       0 days  0 hours 41 minutes 55.1 seconds.
 Elapsed time:       0 days  0 hours  1 minutes 45.8 seconds.
 File lengths (MBytes):  RWF=   1360 Int=      0 D2E=      0 Chk=     32 Scr=     32
 Normal termination of Gaussian 16 at Mon Sep 11 12:20:39 2023.
