 Entering Gaussian System, Link 0=/gpfslocalsup/prod/g16/rev-C01/g16/g16
 Input=r1_C4H7N2O_hess_g16.com
 Output=r1_C4H7N2O_hess_g16.log
 Initial command:
 /gpfslocalsup/prod/g16/rev-C01/g16/l1.exe "/gpfsssd/jobscratch/uzg38mn_1841822/Gau-1792831.inp" -scrdir="/gpfsssd/jobscratch/uzg38mn_1841822/"
 Entering Link 1 = /gpfslocalsup/prod/g16/rev-C01/g16/l1.exe PID=   1792832.
  
 Copyright (c) 1988-2019, Gaussian, Inc.  All Rights Reserved.
  
 This is part of the Gaussian(R) 16 program.  It is based on
 the Gaussian(R) 09 system (copyright 2009, Gaussian, Inc.),
 the Gaussian(R) 03 system (copyright 2003, Gaussian, Inc.),
 the Gaussian(R) 98 system (copyright 1998, Gaussian, Inc.),
 the Gaussian(R) 94 system (copyright 1995, Gaussian, Inc.),
 the Gaussian 92(TM) system (copyright 1992, Gaussian, Inc.),
 the Gaussian 90(TM) system (copyright 1990, Gaussian, Inc.),
 the Gaussian 88(TM) system (copyright 1988, Gaussian, Inc.),
 the Gaussian 86(TM) system (copyright 1986, Carnegie Mellon
 University), and the Gaussian 82(TM) system (copyright 1983,
 Carnegie Mellon University). Gaussian is a federally registered
 trademark of Gaussian, Inc.
  
 This software contains proprietary and confidential information,
 including trade secrets, belonging to Gaussian, Inc.
  
 This software is provided under written license and may be
 used, copied, transmitted, or stored only in accord with that
 written license.
  
 The following legend is applicable only to US Government
 contracts under FAR:
  
                    RESTRICTED RIGHTS LEGEND
  
 Use, reproduction and disclosure by the US Government is
 subject to restrictions as set forth in subparagraphs (a)
 and (c) of the Commercial Computer Software - Restricted
 Rights clause in FAR 52.227-19.
  
 Gaussian, Inc.
 340 Quinnipiac St., Bldg. 40, Wallingford CT 06492
  
  
 ---------------------------------------------------------------
 Warning -- This program may not be used in any manner that
 competes with the business of Gaussian, Inc. or will provide
 assistance to any competitor of Gaussian, Inc.  The licensee
 of this program is prohibited from giving any competitor of
 Gaussian, Inc. access to this program.  By using this program,
 the user acknowledges that Gaussian, Inc. is engaged in the
 business of creating and licensing software in the field of
 computational chemistry and represents and warrants to the
 licensee that it is not a competitor of Gaussian, Inc. and that
 it will not use this program in any manner prohibited above.
 ---------------------------------------------------------------
  

 Cite this work as:
 Gaussian 16, Revision C.01,
 M. J. Frisch, G. W. Trucks, H. B. Schlegel, G. E. Scuseria, 
 M. A. Robb, J. R. Cheeseman, G. Scalmani, V. Barone, 
 G. A. Petersson, H. Nakatsuji, X. Li, M. Caricato, A. V. Marenich, 
 J. Bloino, B. G. Janesko, R. Gomperts, B. Mennucci, H. P. Hratchian, 
 J. V. Ortiz, A. F. Izmaylov, J. L. Sonnenberg, D. Williams-Young, 
 F. Ding, F. Lipparini, F. Egidi, J. Goings, B. Peng, A. Petrone, 
 T. Henderson, D. Ranasinghe, V. G. Zakrzewski, J. Gao, N. Rega, 
 G. Zheng, W. Liang, M. Hada, M. Ehara, K. Toyota, R. Fukuda, 
 J. Hasegawa, M. Ishida, T. Nakajima, Y. Honda, O. Kitao, H. Nakai, 
 T. Vreven, K. Throssell, J. A. Montgomery, Jr., J. E. Peralta, 
 F. Ogliaro, M. J. Bearpark, J. J. Heyd, E. N. Brothers, K. N. Kudin, 
 V. N. Staroverov, T. A. Keith, R. Kobayashi, J. Normand, 
 K. Raghavachari, A. P. Rendell, J. C. Burant, S. S. Iyengar, 
 J. Tomasi, M. Cossi, J. M. Millam, M. Klene, C. Adamo, R. Cammi, 
 J. W. Ochterski, R. L. Martin, K. Morokuma, O. Farkas, 
 J. B. Foresman, and D. J. Fox, Gaussian, Inc., Wallingford CT, 2019.
 
 ******************************************
 Gaussian 16:  ES64L-G16RevC.01  3-Jul-2019
                11-Sep-2023 
 ******************************************
 %mem=96000MB
 %nprocshared=24
 Will use up to   24 processors via shared memory.
 ---------------------
 # um062x Def2SVP Freq
 ---------------------
 1/10=4,30=1,38=1/1,3;
 2/12=2,17=6,18=5,40=1/2;
 3/5=43,7=101,11=2,25=1,30=1,71=2,74=-55,116=2,140=1/1,2,3;
 4//1;
 5/5=2,38=5,98=1/2;
 8/6=4,10=90,11=11/1;
 11/6=1,8=1,9=11,15=111,16=1/1,2,10;
 10/6=1/2;
 6/7=2,8=2,9=2,10=2,28=1/1;
 7/8=1,10=1,25=1/1,2,3,16;
 1/10=4,30=1/3;
 99//99;
 -------------------
 r1_C4H7N2O_hess_g16
 -------------------
 Symbolic Z-matrix:
 Charge =  0 Multiplicity = 2
 C                    -1.22423  -1.25072  -0.09641 
 C                    -0.74328   0.10027   0.2987 
 C                    -0.77251   1.15917  -0.78759 
 N                     0.23593   1.93139  -0.7716 
 O                     1.08923   1.54756   0.23684 
 C                     0.74285   0.21583   0.685 
 N                     1.54687  -0.79749   0.08832 
 H                    -0.56052  -2.11077  -0.03225 
 H                    -2.2664   -1.38913  -0.38313 
 H                    -1.359     0.49574   1.13155 
 H                    -1.56909   1.31427  -1.51636 
 H                     0.90561   0.21684   1.76973 
 H                     2.52901  -0.64291   0.30378 
 H                     1.44543  -0.79004  -0.92648 
 

 GradGradGradGradGradGradGradGradGradGradGradGradGradGradGradGradGradGrad
 Berny optimization.
 Initialization pass.
 Trust Radius=3.00D-01 FncErr=1.00D-07 GrdErr=1.00D-07 EigMax=2.50D+02 EigMin=1.00D-04
 Number of steps in this run=      2 maximum allowed number of steps=      2.
 GradGradGradGradGradGradGradGradGradGradGradGradGradGradGradGradGradGrad

                          Input orientation:                          
 ---------------------------------------------------------------------
 Center     Atomic      Atomic             Coordinates (Angstroms)
 Number     Number       Type             X           Y           Z
 ---------------------------------------------------------------------
      1          6           0       -1.224228   -1.250718   -0.096408
      2          6           0       -0.743276    0.100273    0.298701
      3          6           0       -0.772510    1.159165   -0.787591
      4          7           0        0.235928    1.931391   -0.771596
      5          8           0        1.089230    1.547555    0.236835
      6          6           0        0.742852    0.215828    0.685000
      7          7           0        1.546867   -0.797494    0.088320
      8          1           0       -0.560520   -2.110767   -0.032249
      9          1           0       -2.266401   -1.389127   -0.383131
     10          1           0       -1.358997    0.495735    1.131545
     11          1           0       -1.569092    1.314274   -1.516356
     12          1           0        0.905610    0.216835    1.769729
     13          1           0        2.529007   -0.642908    0.303780
     14          1           0        1.445428   -0.790043   -0.926477
 ---------------------------------------------------------------------
                    Distance matrix (angstroms):
                    1          2          3          4          5
     1  C    0.000000
     2  C    1.487482   0.000000
     3  C    2.547414   1.517280   0.000000
     4  N    3.565635   2.336101   1.270250   0.000000
     5  O    3.646021   2.335922   2.160179   1.375641   0.000000
     6  C    2.575026   1.539856   2.314029   2.306903   1.447179
     7  N    2.813984   2.468806   3.158361   3.147194   2.393897
     8  H    1.088260   2.243129   3.362728   4.185690   4.022114
     9  H    1.089721   2.236765   2.981458   4.175930   4.502079
    10  H    2.139189   1.108662   2.113573   2.868247   2.810809
    11  H    2.952011   2.334567   1.090734   2.047828   3.192926
    12  H    3.189418   2.212766   3.200618   3.137915   2.038209
    13  H    3.823134   3.355619   3.916449   3.611324   2.622130
    14  H    2.833425   2.661606   2.956002   2.982127   2.635249
                    6          7          8          9         10
     6  C    0.000000
     7  N    1.424531   0.000000
     8  H    2.761570   2.486021   0.000000
     9  H    3.573848   3.887584   1.885182   0.000000
    10  H    2.166915   3.347358   2.964091   2.582698   0.000000
    11  H    3.376039   4.091913   3.866613   3.013107   2.779483
    12  H    1.096872   2.065723   3.288524   4.156390   2.369284
    13  H    2.018194   1.017310   3.436961   4.901492   4.135006
    14  H    2.025401   1.019882   2.562769   3.798921   3.708568
                   11         12         13         14
    11  H    0.000000
    12  H    4.257567   0.000000
    13  H    4.892634   2.350230   0.000000
    14  H    3.723364   2.928265   1.646003   0.000000
 Stoichiometry    C4H7N2O(2)
 Framework group  C1[X(C4H7N2O)]
 Deg. of freedom    36
 Full point group                 C1      NOp   1
 Largest Abelian subgroup         C1      NOp   1
 Largest concise Abelian subgroup C1      NOp   1
                         Standard orientation:                         
 ---------------------------------------------------------------------
 Center     Atomic      Atomic             Coordinates (Angstroms)
 Number     Number       Type             X           Y           Z
 ---------------------------------------------------------------------
      1          6           0        2.078724   -0.401245   -0.070447
      2          6           0        0.702093   -0.512457    0.481934
      3          6           0       -0.259639   -1.384722   -0.303153
      4          7           0       -1.437561   -0.913421   -0.365697
      5          8           0       -1.482000    0.293920    0.292133
      6          6           0       -0.135687    0.779307    0.506999
      7          7           0        0.278098    1.722669   -0.476941
      8          1           0        2.476998    0.568545   -0.362326
      9          1           0        2.714252   -1.285302   -0.115598
     10          1           0        0.735296   -0.934732    1.506488
     11          1           0       -0.030428   -2.347676   -0.761282
     12          1           0       -0.149034    1.263275    1.491237
     13          1           0       -0.345067    2.526765   -0.480753
     14          1           0        0.257268    1.307725   -1.408362
 ---------------------------------------------------------------------
 Rotational constants (GHZ):           3.9250850           3.1724055           2.0528291
 Standard basis: def2SVP (5D, 7F)
 There are   140 symmetry adapted cartesian basis functions of A   symmetry.
 There are   133 symmetry adapted basis functions of A   symmetry.
   133 basis functions,   224 primitive gaussians,   140 cartesian basis functions
    27 alpha electrons       26 beta electrons
       nuclear repulsion energy       309.9444240799 Hartrees.
 NAtoms=   14 NActive=   14 NUniq=   14 SFac= 1.00D+00 NAtFMM=   60 NAOKFM=F Big=F
 Integral buffers will be    131072 words long.
 Raffenetti 2 integral format.
 Two-electron integral symmetry is turned on.
 One-electron integrals computed using PRISM.
   1 Symmetry operations used in ECPInt.
 ECPInt:  NShTT=    2016 NPrTT=    7252 LenC2=    2011 LenP2D=    6067.
 LDataN:  DoStor=T MaxTD1= 4 Len=   56
 NBasis=   133 RedAO= T EigKep=  1.16D-03  NBF=   133
 NBsUse=   133 1.00D-06 EigRej= -1.00D+00 NBFU=   133
 ExpMin= 1.22D-01 ExpMax= 2.27D+03 ExpMxC= 3.41D+02 IAcc=3 IRadAn=         5 AccDes= 0.00D+00
 Harris functional with IExCor= 1009 and IRadAn=       5 diagonalized for initial guess.
 HarFok:  IExCor= 1009 AccDes= 0.00D+00 IRadAn=         5 IDoV= 1 UseB2=F ITyADJ=14
 ICtDFT=  3500011 ScaDFX=  1.000000  1.000000  1.000000  1.000000
 FoFCou: FMM=F IPFlag=           0 FMFlag=      100000 FMFlg1=           0
         NFxFlg=           0 DoJE=T BraDBF=F KetDBF=T FulRan=T
         wScrn=  0.000000 ICntrl=       500 IOpCl=  0 I1Cent=   200000004 NGrid=           0
         NMat0=    1 NMatS0=      1 NMatT0=    0 NMatD0=    1 NMtDS0=    0 NMtDT0=    0
 Petite list used in FoFCou.
 Initial guess <Sx>= 0.0000 <Sy>= 0.0000 <Sz>= 0.5000 <S**2>= 0.7500 S= 0.5000
 Requested convergence on RMS density matrix=1.00D-08 within 128 cycles.
 Requested convergence on MAX density matrix=1.00D-06.
 Requested convergence on             energy=1.00D-06.
 No special actions if energy rises.
 Integral accuracy reduced to 1.0D-05 until final iterations.
 Initial convergence to 1.0D-05 achieved.  Increase integral accuracy.
 SCF Done:  E(UM062X) =  -340.826440869     A.U. after   18 cycles
            NFock= 18  Conv=0.94D-08     -V/T= 2.0089
 <Sx>= 0.0000 <Sy>= 0.0000 <Sz>= 0.5000 <S**2>= 0.7552 S= 0.5026
 <L.S>=  0.00000000000    
 Annihilation of the first spin contaminant:
 S**2 before annihilation     0.7552,   after     0.7500
 DoSCS=F DFT=T ScalE2(SS,OS)=  1.000000  1.000000
 Range of M.O.s used for correlation:     1   133
 NBasis=   133 NAE=    27 NBE=    26 NFC=     0 NFV=     0
 NROrb=    133 NOA=    27 NOB=    26 NVA=   106 NVB=   107
   1 Symmetry operations used in ECPInt.
 ECPInt:  NShTT=    2016 NPrTT=    7252 LenC2=    2011 LenP2D=    6067.
 LDataN:  DoStor=T MaxTD1= 5 Len=  102
 Symmetrizing basis deriv contribution to polar:
 IMax=3 JMax=2 DiffMx= 0.00D+00
 G2DrvN: will do    15 centers at a time, making    1 passes.
 Calling FoFCou, ICntrl=  3107 FMM=F I1Cent=   0 AccDes= 0.00D+00.
 End of G2Drv F.D. properties file   721 does not exist.
 End of G2Drv F.D. properties file   722 does not exist.
 End of G2Drv F.D. properties file   788 does not exist.
          IDoAtm=11111111111111
          Differentiating once with respect to electric field.
                with respect to dipole field.
          Differentiating once with respect to nuclear coordinates.
 Keep R1 and R2 ints in memory in canonical form, NReq=102602024.
          There are    45 degrees of freedom in the 1st order CPHF.  IDoFFX=6 NUNeed=     3.
     42 vectors produced by pass  0 Test12= 1.25D-14 2.22D-09 XBig12= 6.03D+01 2.31D+00.
 AX will form    42 AO Fock derivatives at one time.
     42 vectors produced by pass  1 Test12= 1.25D-14 2.22D-09 XBig12= 1.43D+01 6.52D-01.
     42 vectors produced by pass  2 Test12= 1.25D-14 2.22D-09 XBig12= 2.54D-01 5.27D-02.
     42 vectors produced by pass  3 Test12= 1.25D-14 2.22D-09 XBig12= 2.01D-03 5.79D-03.
     42 vectors produced by pass  4 Test12= 1.25D-14 2.22D-09 XBig12= 1.51D-05 4.34D-04.
     42 vectors produced by pass  5 Test12= 1.25D-14 2.22D-09 XBig12= 8.55D-08 4.05D-05.
     39 vectors produced by pass  6 Test12= 1.25D-14 2.22D-09 XBig12= 5.16D-10 3.53D-06.
     15 vectors produced by pass  7 Test12= 1.25D-14 2.22D-09 XBig12= 3.70D-12 2.88D-07.
      3 vectors produced by pass  8 Test12= 1.25D-14 2.22D-09 XBig12= 2.24D-14 1.49D-08.
 InvSVY:  IOpt=1 It=  1 EMax= 7.11D-15
 Solved reduced A of dimension   309 with    45 vectors.
 Isotropic polarizability for W=    0.000000       53.12 Bohr**3.
 End of Minotr F.D. properties file   721 does not exist.
 End of Minotr F.D. properties file   722 does not exist.
 End of Minotr F.D. properties file   788 does not exist.

 **********************************************************************

            Population analysis using the SCF Density.

 **********************************************************************

 Orbital symmetries:
 Alpha Orbitals:
       Occupied  (A) (A) (A) (A) (A) (A) (A) (A) (A) (A) (A) (A)
                 (A) (A) (A) (A) (A) (A) (A) (A) (A) (A) (A) (A)
                 (A) (A) (A)
       Virtual   (A) (A) (A) (A) (A) (A) (A) (A) (A) (A) (A) (A)
                 (A) (A) (A) (A) (A) (A) (A) (A) (A) (A) (A) (A)
                 (A) (A) (A) (A) (A) (A) (A) (A) (A) (A) (A) (A)
                 (A) (A) (A) (A) (A) (A) (A) (A) (A) (A) (A) (A)
                 (A) (A) (A) (A) (A) (A) (A) (A) (A) (A) (A) (A)
                 (A) (A) (A) (A) (A) (A) (A) (A) (A) (A) (A) (A)
                 (A) (A) (A) (A) (A) (A) (A) (A) (A) (A) (A) (A)
                 (A) (A) (A) (A) (A) (A) (A) (A) (A) (A) (A) (A)
                 (A) (A) (A) (A) (A) (A) (A) (A) (A) (A)
 Beta  Orbitals:
       Occupied  (A) (A) (A) (A) (A) (A) (A) (A) (A) (A) (A) (A)
                 (A) (A) (A) (A) (A) (A) (A) (A) (A) (A) (A) (A)
                 (A) (A)
       Virtual   (A) (A) (A) (A) (A) (A) (A) (A) (A) (A) (A) (A)
                 (A) (A) (A) (A) (A) (A) (A) (A) (A) (A) (A) (A)
                 (A) (A) (A) (A) (A) (A) (A) (A) (A) (A) (A) (A)
                 (A) (A) (A) (A) (A) (A) (A) (A) (A) (A) (A) (A)
                 (A) (A) (A) (A) (A) (A) (A) (A) (A) (A) (A) (A)
                 (A) (A) (A) (A) (A) (A) (A) (A) (A) (A) (A) (A)
                 (A) (A) (A) (A) (A) (A) (A) (A) (A) (A) (A) (A)
                 (A) (A) (A) (A) (A) (A) (A) (A) (A) (A) (A) (A)
                 (A) (A) (A) (A) (A) (A) (A) (A) (A) (A) (A)
 The electronic state is 2-A.
 Alpha  occ. eigenvalues --  -19.66385 -14.81037 -14.75401 -10.63774 -10.59201
 Alpha  occ. eigenvalues --  -10.58263 -10.57202  -1.21953  -1.00441  -0.95120
 Alpha  occ. eigenvalues --   -0.87984  -0.76844  -0.67830  -0.66876  -0.61446
 Alpha  occ. eigenvalues --   -0.58315  -0.54834  -0.52436  -0.50727  -0.47202
 Alpha  occ. eigenvalues --   -0.47119  -0.43901  -0.41376  -0.38212  -0.33317
 Alpha  occ. eigenvalues --   -0.31275  -0.27216
 Alpha virt. eigenvalues --    0.03970   0.09569   0.11729   0.12763   0.14486
 Alpha virt. eigenvalues --    0.15070   0.17172   0.18619   0.20141   0.21419
 Alpha virt. eigenvalues --    0.25334   0.28310   0.33627   0.34286   0.37967
 Alpha virt. eigenvalues --    0.46638   0.48650   0.49770   0.51720   0.56814
 Alpha virt. eigenvalues --    0.57024   0.57882   0.61151   0.63074   0.64491
 Alpha virt. eigenvalues --    0.66445   0.67698   0.68107   0.70268   0.70826
 Alpha virt. eigenvalues --    0.72587   0.72915   0.75209   0.76831   0.79414
 Alpha virt. eigenvalues --    0.80953   0.86141   0.87658   0.89159   0.91694
 Alpha virt. eigenvalues --    0.95830   1.00029   1.03917   1.06702   1.13767
 Alpha virt. eigenvalues --    1.17482   1.22082   1.24378   1.28451   1.29546
 Alpha virt. eigenvalues --    1.36548   1.44139   1.46868   1.50499   1.59010
 Alpha virt. eigenvalues --    1.61121   1.64898   1.65868   1.68938   1.73201
 Alpha virt. eigenvalues --    1.75490   1.76330   1.77626   1.81324   1.82601
 Alpha virt. eigenvalues --    1.84055   1.88991   1.91430   1.93068   1.98946
 Alpha virt. eigenvalues --    2.00571   2.02849   2.05576   2.05864   2.09108
 Alpha virt. eigenvalues --    2.13622   2.13915   2.16392   2.20917   2.23480
 Alpha virt. eigenvalues --    2.26088   2.31696   2.37161   2.39246   2.44663
 Alpha virt. eigenvalues --    2.53597   2.56534   2.62354   2.68980   2.72260
 Alpha virt. eigenvalues --    2.76289   2.79012   2.83646   2.88703   2.90971
 Alpha virt. eigenvalues --    2.96907   2.98763   3.03784   3.07870   3.10315
 Alpha virt. eigenvalues --    3.14291   3.22962   3.24717   3.40370   3.44859
 Alpha virt. eigenvalues --    3.70622
  Beta  occ. eigenvalues --  -19.66379 -14.81032 -14.75403 -10.63772 -10.59109
  Beta  occ. eigenvalues --  -10.58339 -10.56452  -1.21921  -1.00412  -0.94883
  Beta  occ. eigenvalues --   -0.87077  -0.74743  -0.66818  -0.66292  -0.61135
  Beta  occ. eigenvalues --   -0.58049  -0.54589  -0.51742  -0.49829  -0.47017
  Beta  occ. eigenvalues --   -0.46118  -0.43540  -0.41190  -0.37790  -0.33069
  Beta  occ. eigenvalues --   -0.31143
  Beta virt. eigenvalues --   -0.01615   0.04336   0.09512   0.11459   0.12845
  Beta virt. eigenvalues --    0.14853   0.15201   0.17388   0.18616   0.20293
  Beta virt. eigenvalues --    0.21570   0.26013   0.28491   0.33534   0.34456
  Beta virt. eigenvalues --    0.38051   0.47446   0.48720   0.50363   0.53767
  Beta virt. eigenvalues --    0.57164   0.58310   0.58816   0.61641   0.63232
  Beta virt. eigenvalues --    0.64718   0.66949   0.67914   0.68326   0.70767
  Beta virt. eigenvalues --    0.71461   0.73662   0.73995   0.76079   0.77526
  Beta virt. eigenvalues --    0.79511   0.81312   0.86592   0.87897   0.89047
  Beta virt. eigenvalues --    0.91685   0.95718   1.00119   1.04010   1.06793
  Beta virt. eigenvalues --    1.13943   1.17632   1.22136   1.25552   1.29053
  Beta virt. eigenvalues --    1.31689   1.36847   1.44300   1.47412   1.50752
  Beta virt. eigenvalues --    1.60330   1.62669   1.65377   1.66700   1.70044
  Beta virt. eigenvalues --    1.74236   1.76154   1.76950   1.78394   1.81917
  Beta virt. eigenvalues --    1.82881   1.87228   1.89522   1.92316   1.93822
  Beta virt. eigenvalues --    1.99016   2.01425   2.03621   2.06228   2.08579
  Beta virt. eigenvalues --    2.09915   2.14116   2.14160   2.16865   2.22731
  Beta virt. eigenvalues --    2.25270   2.29161   2.33157   2.37760   2.39452
  Beta virt. eigenvalues --    2.45403   2.54493   2.57299   2.64760   2.69160
  Beta virt. eigenvalues --    2.72639   2.77487   2.79482   2.84108   2.89354
  Beta virt. eigenvalues --    2.94355   2.99181   3.01424   3.04629   3.08491
  Beta virt. eigenvalues --    3.11384   3.15023   3.23020   3.24774   3.40451
  Beta virt. eigenvalues --    3.44915   3.70620
          Condensed to atoms (all electrons):
               1          2          3          4          5          6
     1  C    5.035306   0.374212  -0.062056   0.002976   0.005514  -0.073002
     2  C    0.374212   5.238215   0.253042  -0.037789  -0.053364   0.313947
     3  C   -0.062056   0.253042   4.959797   0.612045  -0.100444  -0.058770
     4  N    0.002976  -0.037789   0.612045   6.306935   0.169832  -0.056744
     5  O    0.005514  -0.053364  -0.100444   0.169832   8.182277   0.234182
     6  C   -0.073002   0.313947  -0.058770  -0.056744   0.234182   4.701094
     7  N    0.008039  -0.100665   0.006220  -0.004347  -0.081138   0.403283
     8  H    0.405123  -0.022729   0.002325  -0.000067   0.000619  -0.017367
     9  H    0.397902  -0.031578  -0.004062  -0.000031  -0.000089   0.007874
    10  H   -0.024746   0.319656  -0.012766  -0.006495   0.005276   0.002512
    11  H    0.001472  -0.057505   0.417077  -0.027704   0.005745   0.004436
    12  H   -0.000114  -0.007540   0.004162   0.005773  -0.028823   0.384050
    13  H   -0.000328   0.013608  -0.001234  -0.000590   0.002686  -0.021540
    14  H    0.005061  -0.021546   0.006578   0.002719  -0.003511  -0.008674
               7          8          9         10         11         12
     1  C    0.008039   0.405123   0.397902  -0.024746   0.001472  -0.000114
     2  C   -0.100665  -0.022729  -0.031578   0.319656  -0.057505  -0.007540
     3  C    0.006220   0.002325  -0.004062  -0.012766   0.417077   0.004162
     4  N   -0.004347  -0.000067  -0.000031  -0.006495  -0.027704   0.005773
     5  O   -0.081138   0.000619  -0.000089   0.005276   0.005745  -0.028823
     6  C    0.403283  -0.017367   0.007874   0.002512   0.004436   0.384050
     7  N    6.266721   0.021703   0.000492   0.005652   0.000132  -0.040184
     8  H    0.021703   0.553570  -0.029751   0.002440  -0.000224   0.000245
     9  H    0.000492  -0.029751   0.597556  -0.003754   0.001331  -0.000215
    10  H    0.005652   0.002440  -0.003754   0.638019   0.001964  -0.011597
    11  H    0.000132  -0.000224   0.001331   0.001964   0.596703  -0.000232
    12  H   -0.040184   0.000245  -0.000215  -0.011597  -0.000232   0.647177
    13  H    0.355731  -0.000543  -0.000001  -0.000411   0.000023  -0.008456
    14  H    0.346921  -0.001056  -0.000224   0.000264  -0.000329   0.009091
              13         14
     1  C   -0.000328   0.005061
     2  C    0.013608  -0.021546
     3  C   -0.001234   0.006578
     4  N   -0.000590   0.002719
     5  O    0.002686  -0.003511
     6  C   -0.021540  -0.008674
     7  N    0.355731   0.346921
     8  H   -0.000543  -0.001056
     9  H   -0.000001  -0.000224
    10  H   -0.000411   0.000264
    11  H    0.000023  -0.000329
    12  H   -0.008456   0.009091
    13  H    0.558366  -0.027081
    14  H   -0.027081   0.573229
          Atomic-Atomic Spin Densities.
               1          2          3          4          5          6
     1  C    1.202795  -0.038924  -0.028209   0.000812   0.000625  -0.010035
     2  C   -0.038924  -0.073886   0.014853   0.000385   0.000432   0.002251
     3  C   -0.028209   0.014853   0.066321  -0.002982  -0.000924   0.005013
     4  N    0.000812   0.000385  -0.002982   0.003206  -0.002285   0.000251
     5  O    0.000625   0.000432  -0.000924  -0.002285   0.004793  -0.001707
     6  C   -0.010035   0.002251   0.005013   0.000251  -0.001707   0.013335
     7  N    0.000207   0.001469  -0.000987  -0.000012   0.000434  -0.003480
     8  H   -0.001130  -0.002404   0.000301  -0.000006   0.000004   0.001516
     9  H    0.002451  -0.001786   0.001011  -0.000010   0.000002  -0.000198
    10  H   -0.022296   0.016004  -0.016482   0.000915   0.000027  -0.004495
    11  H    0.002527   0.000509  -0.002884   0.000164   0.000059  -0.000257
    12  H    0.000609  -0.000829   0.000391  -0.000042   0.000121   0.001036
    13  H    0.000140  -0.000093  -0.000027  -0.000016   0.000041  -0.000775
    14  H    0.002308   0.000296  -0.000713  -0.000103   0.000262  -0.000745
               7          8          9         10         11         12
     1  C    0.000207  -0.001130   0.002451  -0.022296   0.002527   0.000609
     2  C    0.001469  -0.002404  -0.001786   0.016004   0.000509  -0.000829
     3  C   -0.000987   0.000301   0.001011  -0.016482  -0.002884   0.000391
     4  N   -0.000012  -0.000006  -0.000010   0.000915   0.000164  -0.000042
     5  O    0.000434   0.000004   0.000002   0.000027   0.000059   0.000121
     6  C   -0.003480   0.001516  -0.000198  -0.004495  -0.000257   0.001036
     7  N    0.000959   0.000795   0.000002   0.000506   0.000016  -0.000287
     8  H    0.000795  -0.052473   0.002193  -0.000424  -0.000014   0.000007
     9  H    0.000002   0.002193  -0.057319  -0.000119  -0.000144   0.000010
    10  H    0.000506  -0.000424  -0.000119   0.064140   0.000739  -0.000834
    11  H    0.000016  -0.000014  -0.000144   0.000739  -0.001808  -0.000007
    12  H   -0.000287   0.000007   0.000010  -0.000834  -0.000007  -0.000757
    13  H    0.000286  -0.000058  -0.000001   0.000039   0.000002  -0.000087
    14  H    0.000491  -0.000134  -0.000002   0.000172   0.000045  -0.000146
              13         14
     1  C    0.000140   0.002308
     2  C   -0.000093   0.000296
     3  C   -0.000027  -0.000713
     4  N   -0.000016  -0.000103
     5  O    0.000041   0.000262
     6  C   -0.000775  -0.000745
     7  N    0.000286   0.000491
     8  H   -0.000058  -0.000134
     9  H   -0.000001  -0.000002
    10  H    0.000039   0.000172
    11  H    0.000002   0.000045
    12  H   -0.000087  -0.000146
    13  H    0.000495   0.000348
    14  H    0.000348  -0.001763
 Mulliken charges and spin densities:
               1          2
     1  C   -0.075359   1.111880
     2  C   -0.179963  -0.081723
     3  C   -0.021913   0.034681
     4  N    0.033488   0.000278
     5  O   -0.338762   0.001883
     6  C    0.184720   0.001711
     7  N   -0.188560   0.000399
     8  H    0.085712  -0.051829
     9  H    0.064549  -0.053910
    10  H    0.083986   0.037892
    11  H    0.057110  -0.001055
    12  H    0.046663  -0.000816
    13  H    0.129772   0.000293
    14  H    0.118557   0.000315
 Sum of Mulliken charges =  -0.00000   1.00000
 Mulliken charges and spin densities with hydrogens summed into heavy atoms:
               1          2
     1  C    0.074903   1.006142
     2  C   -0.095977  -0.043831
     3  C    0.035198   0.033627
     4  N    0.033488   0.000278
     5  O   -0.338762   0.001883
     6  C    0.231383   0.000894
     7  N    0.059768   0.001007
 APT charges:
               1
     1  C   -0.057710
     2  C   -0.031196
     3  C    0.100485
     4  N    0.006053
     5  O   -0.607400
     6  C    0.643181
     7  N   -0.548958
     8  H    0.073907
     9  H    0.032749
    10  H   -0.007552
    11  H    0.065822
    12  H   -0.015351
    13  H    0.183628
    14  H    0.162343
 Sum of APT charges =   0.00000
 APT charges with hydrogens summed into heavy atoms:
               1
     1  C    0.048945
     2  C   -0.038748
     3  C    0.166307
     4  N    0.006053
     5  O   -0.607400
     6  C    0.627830
     7  N   -0.202987
 Electronic spatial extent (au):  <R**2>=            641.4750
 Charge=              0.0000 electrons
 Dipole moment (field-independent basis, Debye):
    X=              2.3186    Y=              0.1057    Z=              0.1002  Tot=              2.3231
 Quadrupole moment (field-independent basis, Debye-Ang):
   XX=            -48.7298   YY=            -37.4885   ZZ=            -39.6069
   XY=             -4.5005   XZ=             -0.3098   YZ=             -0.8485
 Traceless Quadrupole moment (field-independent basis, Debye-Ang):
   XX=             -6.7881   YY=              4.4533   ZZ=              2.3348
   XY=             -4.5005   XZ=             -0.3098   YZ=             -0.8485
 Octapole moment (field-independent basis, Debye-Ang**2):
  XXX=              5.8863  YYY=              5.9996  ZZZ=              0.2327  XYY=             -5.0862
  XXY=              1.6748  XXZ=              0.1388  XZZ=             -2.3659  YZZ=              4.9837
  YYZ=             -2.8132  XYZ=              1.5059
 Hexadecapole moment (field-independent basis, Debye-Ang**3):
 XXXX=           -419.5720 YYYY=           -289.5857 ZZZZ=            -94.9785 XXXY=            -10.8812
 XXXZ=             -7.8374 YYYX=            -24.0556 YYYZ=              0.7739 ZZZX=             -1.6208
 ZZZY=             -5.8214 XXYY=           -125.8902 XXZZ=            -90.2699 YYZZ=            -64.9498
 XXYZ=             -4.5511 YYXZ=              0.3621 ZZXY=             -1.0673
 N-N= 3.099444240799D+02 E-N=-1.413973235556D+03  KE= 3.378177407540D+02
  Exact polarizability:      57.123      -3.956      58.883      -0.923       2.221      43.361
 Approx polarizability:      71.600      -6.425      67.818      -1.493       3.559      53.887
                          Isotropic Fermi Contact Couplings
        Atom                 a.u.       MegaHertz       Gauss      10(-4) cm-1
     1  C(13)              0.22719     255.40598      91.13520      85.19426
     2  C(13)             -0.04603     -51.75092     -18.46601     -17.26225
     3  C(13)              0.07033      79.06775      28.21334      26.37416
     4  N(14)              0.00053       0.17247       0.06154       0.05753
     5  O(17)              0.00400      -2.42352      -0.86477      -0.80840
     6  C(13)              0.00119       1.34034       0.47827       0.44709
     7  N(14)             -0.00147      -0.47541      -0.16964      -0.15858
     8  H(1)              -0.01549     -69.22846     -24.70244     -23.09213
     9  H(1)              -0.01499     -67.01094     -23.91117     -22.35244
    10  H(1)               0.01996      89.19726      31.82780      29.75300
    11  H(1)              -0.00046      -2.06891      -0.73824      -0.69011
    12  H(1)              -0.00011      -0.51392      -0.18338      -0.17143
    13  H(1)               0.00019       0.86532       0.30877       0.28864
    14  H(1)               0.00017       0.78027       0.27842       0.26027
 --------------------------------------------------------
       Center         ----  Spin Dipole Couplings  ----
                      3XX-RR        3YY-RR        3ZZ-RR
 --------------------------------------------------------
     1   Atom       -0.354908     -0.482519      0.837427
     2   Atom        0.005948     -0.012837      0.006889
     3   Atom        0.032996     -0.016786     -0.016210
     4   Atom        0.022148     -0.011989     -0.010159
     5   Atom       -0.004929     -0.006317      0.011246
     6   Atom        0.007428     -0.002531     -0.004897
     7   Atom       -0.003330      0.003487     -0.000157
     8   Atom       -0.045159      0.048978     -0.003819
     9   Atom       -0.014982      0.029794     -0.014813
    10   Atom        0.004352     -0.008159      0.003807
    11   Atom        0.000607      0.004782     -0.005389
    12   Atom        0.001756     -0.000116     -0.001640
    13   Atom        0.000199      0.001994     -0.002194
    14   Atom        0.000901      0.002203     -0.003104
 --------------------------------------------------------
                        XY            XZ            YZ
 --------------------------------------------------------
     1   Atom        0.084149      0.493956      0.237883
     2   Atom        0.001790      0.000720      0.003871
     3   Atom        0.036416      0.026417      0.011748
     4   Atom       -0.014293      0.022711      0.002002
     5   Atom       -0.002320     -0.001213      0.010008
     6   Atom       -0.007981     -0.003063      0.002049
     7   Atom       -0.009936     -0.002056      0.001152
     8   Atom        0.052108      0.006529     -0.025462
     9   Atom       -0.066837      0.016477      0.016229
    10   Atom        0.004442     -0.012262     -0.005965
    11   Atom        0.007586      0.001744      0.004604
    12   Atom       -0.004544     -0.003523      0.002788
    13   Atom       -0.003475      0.000423     -0.000527
    14   Atom       -0.008056      0.004523     -0.004048
 --------------------------------------------------------


 ---------------------------------------------------------------------------------
              Anisotropic Spin Dipole Couplings in Principal Axis System
 ---------------------------------------------------------------------------------

       Atom             a.u.   MegaHertz   Gauss  10(-4) cm-1        Axes

              Baa    -0.5332   -71.549   -25.531   -23.866  0.9205  0.1552 -0.3587
     1 C(13)  Bbb    -0.5236   -70.268   -25.073   -23.439 -0.2021  0.9746 -0.0970
              Bcc     1.0568   141.817    50.604    47.305  0.3345  0.1618  0.9284
 
              Baa    -0.0137    -1.839    -0.656    -0.613 -0.0826  0.9799 -0.1813
     2 C(13)  Bbb     0.0056     0.746     0.266     0.249  0.8902 -0.0092 -0.4555
              Bcc     0.0081     1.093     0.390     0.364  0.4480  0.1990  0.8716
 
              Baa    -0.0364    -4.879    -1.741    -1.627 -0.5096  0.8419  0.1774
     3 C(13)  Bbb    -0.0264    -3.543    -1.264    -1.182 -0.2123 -0.3228  0.9223
              Bcc     0.0628     8.421     3.005     2.809  0.8338  0.4324  0.3433
 
              Baa    -0.0272    -1.050    -0.375    -0.350 -0.4758 -0.5377  0.6961
     4 N(14)  Bbb    -0.0096    -0.368    -0.131    -0.123 -0.0556  0.8082  0.5863
              Bcc     0.0368     1.419     0.506     0.473  0.8778 -0.2402  0.4144
 
              Baa    -0.0113     0.816     0.291     0.272  0.2523  0.8892 -0.3816
     5 O(17)  Bbb    -0.0047     0.341     0.122     0.114  0.9626 -0.1904  0.1926
              Bcc     0.0160    -1.157    -0.413    -0.386 -0.0986  0.4160  0.9040
 
              Baa    -0.0070    -0.943    -0.336    -0.314  0.4378  0.8739 -0.2113
     6 C(13)  Bbb    -0.0056    -0.752    -0.268    -0.251  0.2802  0.0907  0.9557
              Bcc     0.0126     1.694     0.605     0.565  0.8543 -0.4776 -0.2052
 
              Baa    -0.0105    -0.406    -0.145    -0.135  0.8156  0.5703  0.0983
     7 N(14)  Bbb    -0.0005    -0.018    -0.006    -0.006  0.0295 -0.2107  0.9771
              Bcc     0.0110     0.424     0.151     0.141 -0.5779  0.7940  0.1886
 
              Baa    -0.0724   -38.609   -13.777   -12.878  0.8724 -0.4252 -0.2411
     8 H(1)   Bbb    -0.0051    -2.730    -0.974    -0.911  0.3226  0.1305  0.9375
              Bcc     0.0775    41.338    14.751    13.789  0.3672  0.8956 -0.2510
 
              Baa    -0.0722   -38.520   -13.745   -12.849  0.7488  0.5496 -0.3705
     9 H(1)   Bbb    -0.0058    -3.115    -1.112    -1.039  0.3237  0.1845  0.9280
              Bcc     0.0780    41.635    14.857    13.888 -0.5784  0.8148  0.0398
 
              Baa    -0.0107    -5.704    -2.035    -1.903  0.1137  0.8812  0.4588
    10 H(1)   Bbb    -0.0077    -4.104    -1.464    -1.369  0.7237 -0.3899  0.5695
              Bcc     0.0184     9.808     3.500     3.272 -0.6807 -0.2672  0.6821
 
              Baa    -0.0075    -3.990    -1.424    -1.331  0.2716 -0.4811  0.8335
    11 H(1)   Bbb    -0.0044    -2.339    -0.835    -0.780  0.7778 -0.4003 -0.4845
              Bcc     0.0119     6.329     2.258     2.111  0.5668  0.7799  0.2655
 
              Baa    -0.0039    -2.068    -0.738    -0.690  0.6877  0.3663  0.6268
    12 H(1)   Bbb    -0.0038    -2.006    -0.716    -0.669  0.1955  0.7380 -0.6458
              Bcc     0.0076     4.073     1.454     1.359  0.6992 -0.5667 -0.4359
 
              Baa    -0.0025    -1.330    -0.475    -0.444  0.7925  0.6079 -0.0498
    13 H(1)   Bbb    -0.0023    -1.205    -0.430    -0.402 -0.0197  0.1071  0.9941
              Bcc     0.0048     2.535     0.905     0.846 -0.6096  0.7868 -0.0969
 
              Baa    -0.0068    -3.609    -1.288    -1.204  0.7678  0.5222 -0.3712
    14 H(1)   Bbb    -0.0053    -2.818    -1.006    -0.940  0.0568  0.5216  0.8513
              Bcc     0.0120     6.427     2.293     2.144 -0.6382  0.6747 -0.3708
 

 ---------------------------------------------------------------------------------

   1 Symmetry operations used in ECPInt.
 ECPInt:  NShTT=    2016 NPrTT=    7252 LenC2=    2011 LenP2D=    6067.
 LDataN:  DoStor=T MaxTD1= 6 Len=  172
 Calling FoFJK, ICntrl=    100127 FMM=F ISym2X=0 I1Cent= 0 IOpClX= 1 NMat=1 NMatS=1 NMatT=0.
 Full mass-weighted force constant matrix:
 Low frequencies ---  -17.7998  -13.9341   -0.0014   -0.0012   -0.0008    8.7543
 Low frequencies ---   62.6284  133.0384  275.3748
 Diagonal vibrational polarizability:
       24.1290592      20.5605926      26.8245953
 Harmonic frequencies (cm**-1), IR intensities (KM/Mole), Raman scattering
 activities (A**4/AMU), depolarization ratios for plane and unpolarized
 incident light, reduced masses (AMU), force constants (mDyne/A),
 and normal coordinates:
                      1                      2                      3
                      A                      A                      A
 Frequencies --     61.9644               133.0348               275.3699
 Red. masses --      1.4657                 1.9289                 2.2268
 Frc consts  --      0.0033                 0.0201                 0.0995
 IR Inten    --      4.2702                 1.4995                 7.4107
  Atom  AN      X      Y      Z        X      Y      Z        X      Y      Z
     1   6    -0.04   0.01  -0.10     0.04   0.02   0.09     0.10  -0.03   0.10
     2   6    -0.00   0.01   0.01    -0.01  -0.00  -0.02     0.00  -0.02  -0.14
     3   6     0.00  -0.04   0.09     0.00   0.07  -0.11    -0.05  -0.05  -0.04
     4   7     0.01  -0.04   0.02    -0.01   0.05  -0.01    -0.07  -0.08   0.12
     5   8    -0.01   0.01  -0.08     0.00  -0.02   0.14     0.02   0.00  -0.03
     6   6    -0.02   0.01  -0.00     0.02  -0.00  -0.00     0.03   0.00  -0.10
     7   7     0.04   0.03   0.05    -0.04  -0.09  -0.11    -0.03   0.13  -0.00
     8   1     0.23   0.13   0.66     0.28   0.12   0.75     0.21   0.01   0.39
     9   1    -0.21  -0.08  -0.55    -0.09  -0.06  -0.22     0.13  -0.01   0.28
    10   1     0.07   0.07   0.03    -0.10  -0.06  -0.04    -0.10   0.00  -0.12
    11   1     0.00  -0.08   0.17     0.00   0.12  -0.23    -0.12  -0.10   0.03
    12   1    -0.08  -0.02   0.01     0.08   0.06  -0.03     0.11  -0.07  -0.06
    13   1     0.01   0.00  -0.01    -0.10  -0.13  -0.22     0.18   0.29   0.37
    14   1     0.20   0.04   0.05     0.03  -0.21  -0.06    -0.36   0.37  -0.10
                      4                      5                      6
                      A                      A                      A
 Frequencies --    294.9621               357.9097               412.6131
 Red. masses --      2.4319                 1.3291                 1.6005
 Frc consts  --      0.1247                 0.1003                 0.1605
 IR Inten    --      0.7452                30.0371                45.6367
  Atom  AN      X      Y      Z        X      Y      Z        X      Y      Z
     1   6    -0.00   0.23  -0.01     0.04  -0.07  -0.02    -0.03  -0.04  -0.14
     2   6    -0.01  -0.06  -0.06     0.01   0.04  -0.06     0.02  -0.03   0.03
     3   6    -0.09  -0.04  -0.03    -0.00   0.02  -0.03    -0.01  -0.02   0.07
     4   7    -0.09  -0.01   0.07    -0.02  -0.03   0.05     0.04   0.07  -0.08
     5   8    -0.01   0.03  -0.02    -0.01  -0.01  -0.00     0.03   0.03  -0.00
     6   6     0.01  -0.06   0.01    -0.01   0.02  -0.01     0.02  -0.02   0.02
     7   7     0.14  -0.10   0.02    -0.02   0.08   0.05    -0.08  -0.01  -0.01
     8   1    -0.23   0.36   0.11     0.17  -0.12  -0.03     0.13   0.07   0.47
     9   1     0.34   0.47   0.30     0.05  -0.08   0.31     0.29   0.14   0.71
    10   1     0.06  -0.13  -0.10    -0.00   0.03  -0.06     0.12   0.02   0.05
    11   1    -0.18  -0.09   0.02     0.00   0.01  -0.01    -0.02  -0.02   0.06
    12   1     0.02  -0.08   0.01    -0.06  -0.03   0.02     0.05  -0.02   0.03
    13   1     0.12  -0.12  -0.14    -0.44  -0.24  -0.37    -0.13  -0.05   0.07
    14   1     0.34  -0.16   0.05     0.64  -0.07   0.10    -0.22  -0.02  -0.00
                      7                      8                      9
                      A                      A                      A
 Frequencies --    436.8659               518.9689               602.6825
 Red. masses --      2.3722                 4.0459                 4.4926
 Frc consts  --      0.2667                 0.6420                 0.9614
 IR Inten    --     48.7710                 6.8832                14.9402
  Atom  AN      X      Y      Z        X      Y      Z        X      Y      Z
     1   6    -0.09  -0.04  -0.11    -0.20   0.04   0.05     0.27   0.03   0.02
     2   6    -0.05   0.11   0.01    -0.11  -0.08   0.05     0.10   0.05  -0.09
     3   6     0.07   0.07  -0.04    -0.05  -0.16   0.04    -0.13  -0.09   0.20
     4   7     0.01  -0.08   0.02     0.03   0.00  -0.12    -0.05   0.10  -0.23
     5   8    -0.08  -0.10   0.09     0.14  -0.11   0.18    -0.14  -0.08   0.15
     6   6    -0.08   0.06  -0.03     0.09   0.03  -0.13    -0.09  -0.00  -0.05
     7   7     0.15  -0.03  -0.00     0.05   0.21  -0.06     0.02  -0.01   0.02
     8   1     0.13  -0.07   0.13    -0.42   0.14   0.06     0.31  -0.04  -0.17
     9   1    -0.03  -0.03   0.47    -0.01   0.18  -0.06     0.14  -0.06  -0.18
    10   1    -0.05   0.10   0.00    -0.21   0.12   0.13     0.28   0.23  -0.02
    11   1     0.22   0.15  -0.14    -0.02  -0.12  -0.03    -0.23  -0.16   0.29
    12   1    -0.13   0.11  -0.05     0.17   0.05  -0.14    -0.10  -0.01  -0.05
    13   1     0.61   0.32   0.05    -0.16   0.05  -0.09     0.31   0.21  -0.02
    14   1     0.12   0.08  -0.04     0.45   0.35  -0.13     0.28   0.11  -0.04
                     10                     11                     12
                      A                      A                      A
 Frequencies --    745.6013               810.1246               852.0667
 Red. masses --      2.3647                 2.2087                 1.9881
 Frc consts  --      0.7745                 0.8540                 0.8504
 IR Inten    --     31.1518                45.9356                20.1538
  Atom  AN      X      Y      Z        X      Y      Z        X      Y      Z
     1   6     0.07  -0.05  -0.04    -0.05  -0.01   0.02     0.05  -0.07  -0.02
     2   6     0.10  -0.15   0.19    -0.03  -0.05  -0.08     0.00  -0.11   0.00
     3   6     0.01   0.08   0.00     0.08  -0.01  -0.02     0.04  -0.03  -0.08
     4   7    -0.03   0.02   0.06     0.13   0.11   0.07     0.05  -0.03  -0.01
     5   8    -0.11   0.00  -0.03     0.03   0.05  -0.00    -0.05   0.02   0.03
     6   6    -0.00  -0.05  -0.09    -0.08  -0.02  -0.05    -0.09   0.14   0.11
     7   7    -0.03   0.05  -0.03    -0.15  -0.09   0.03     0.04   0.09  -0.05
     8   1    -0.23   0.12   0.08    -0.10  -0.01  -0.00    -0.25   0.09   0.10
     9   1     0.38   0.17  -0.18    -0.03   0.00   0.01     0.32   0.14  -0.14
    10   1     0.06  -0.08   0.21    -0.06  -0.05  -0.08    -0.08  -0.33  -0.08
    11   1     0.04   0.29  -0.43    -0.16  -0.20   0.27    -0.17  -0.33   0.43
    12   1    -0.09   0.04  -0.14     0.02  -0.05  -0.03    -0.14   0.18   0.09
    13   1     0.05   0.11   0.08     0.45   0.34   0.02     0.05   0.10  -0.29
    14   1     0.32   0.31  -0.15     0.61   0.18  -0.07    -0.21  -0.22   0.08
                     13                     14                     15
                      A                      A                      A
 Frequencies --    870.5730               886.1720               944.2412
 Red. masses --      1.9602                 2.7708                 1.9802
 Frc consts  --      0.8753                 1.2820                 1.0402
 IR Inten    --     31.4434                29.1764                69.0961
  Atom  AN      X      Y      Z        X      Y      Z        X      Y      Z
     1   6    -0.03  -0.00   0.00     0.02   0.01  -0.04    -0.00  -0.08   0.02
     2   6    -0.01  -0.01  -0.02     0.05   0.07   0.15    -0.04   0.02  -0.11
     3   6     0.08   0.15   0.00    -0.08   0.13  -0.11     0.01   0.08   0.10
     4   7     0.03   0.00  -0.01    -0.15  -0.03  -0.03    -0.05  -0.09  -0.07
     5   8    -0.09   0.02   0.05     0.11  -0.12  -0.05    -0.03   0.03  -0.00
     6   6    -0.00  -0.14  -0.11     0.12   0.03   0.03     0.13   0.06   0.03
     7   7     0.08   0.01   0.00    -0.08  -0.04   0.00    -0.06  -0.04   0.03
     8   1    -0.05   0.00   0.01     0.08  -0.00  -0.00    -0.44   0.13   0.12
     9   1    -0.04  -0.01   0.02     0.03   0.01   0.01     0.35   0.18  -0.18
    10   1    -0.09  -0.08  -0.04    -0.08  -0.06   0.09    -0.21   0.09  -0.07
    11   1     0.02  -0.19   0.69    -0.20  -0.29   0.71     0.48   0.20   0.09
    12   1     0.15  -0.16  -0.10    -0.16   0.16  -0.04     0.30  -0.07   0.10
    13   1    -0.35  -0.31   0.22     0.20   0.16   0.10     0.15   0.10  -0.03
    14   1    -0.13   0.19  -0.09     0.24   0.10  -0.05     0.15  -0.10   0.06
                     16                     17                     18
                      A                      A                      A
 Frequencies --    964.4375              1001.3384              1043.3803
 Red. masses --      7.3184                 2.6416                 1.8354
 Frc consts  --      4.0106                 1.5606                 1.1772
 IR Inten    --     69.1134                65.7684                 2.2580
  Atom  AN      X      Y      Z        X      Y      Z        X      Y      Z
     1   6    -0.11   0.05   0.04    -0.02   0.09  -0.01     0.05  -0.03  -0.04
     2   6     0.02  -0.03  -0.05     0.03  -0.05   0.09    -0.02   0.09   0.07
     3   6     0.02  -0.09  -0.03     0.03  -0.08  -0.06     0.01  -0.11  -0.12
     4   7     0.13   0.19   0.09    -0.03  -0.16  -0.09     0.03  -0.03   0.00
     5   8    -0.37  -0.22  -0.11    -0.08   0.19   0.06    -0.04   0.07   0.03
     6   6     0.43   0.12   0.10     0.07   0.01   0.05     0.02   0.03  -0.06
     7   7    -0.01   0.03  -0.04    -0.06   0.01  -0.04    -0.00  -0.06   0.07
     8   1     0.11  -0.06  -0.04     0.41  -0.12  -0.12    -0.06   0.04   0.01
     9   1    -0.30  -0.08   0.15    -0.35  -0.17   0.18     0.23   0.10  -0.11
    10   1     0.16   0.12   0.00     0.23  -0.30  -0.02    -0.41   0.64   0.30
    11   1    -0.36  -0.19  -0.00     0.17  -0.12   0.05    -0.24  -0.22  -0.04
    12   1     0.36   0.00   0.15     0.38   0.05   0.04     0.15   0.01  -0.05
    13   1     0.01   0.04   0.02     0.11   0.12   0.04    -0.09  -0.13   0.12
    14   1     0.03  -0.11   0.03     0.29   0.17  -0.11    -0.05  -0.06   0.07
                     19                     20                     21
                      A                      A                      A
 Frequencies --   1139.8919              1152.8735              1233.0684
 Red. masses --      1.2747                 1.5359                 1.4375
 Frc consts  --      0.9759                 1.2027                 1.2877
 IR Inten    --      8.2340                 1.3564                10.3617
  Atom  AN      X      Y      Z        X      Y      Z        X      Y      Z
     1   6     0.05   0.01  -0.03    -0.09  -0.07   0.07     0.01   0.03   0.01
     2   6    -0.08  -0.00  -0.02     0.12   0.07  -0.05    -0.07  -0.14  -0.02
     3   6    -0.01  -0.05   0.03    -0.00  -0.02  -0.04     0.00  -0.00  -0.06
     4   7     0.02   0.02   0.01    -0.01  -0.03  -0.02    -0.03   0.04   0.02
     5   8    -0.01  -0.00   0.00    -0.01   0.03   0.02     0.01   0.00   0.01
     6   6     0.03   0.07   0.01     0.00   0.04  -0.01     0.02   0.04  -0.05
     7   7     0.01  -0.06   0.01     0.01  -0.05   0.02    -0.01  -0.00   0.04
     8   1     0.14  -0.02  -0.05    -0.39   0.07   0.14     0.16  -0.05  -0.06
     9   1     0.07   0.03  -0.02     0.01   0.02  -0.02    -0.02  -0.00   0.01
    10   1    -0.30  -0.36  -0.16     0.67   0.05  -0.08     0.42   0.44   0.20
    11   1     0.22   0.03  -0.02    -0.16  -0.07  -0.05     0.58  -0.01   0.24
    12   1    -0.27   0.49  -0.20    -0.24   0.31  -0.14    -0.24   0.12  -0.10
    13   1    -0.20  -0.22   0.35    -0.13  -0.15   0.21     0.01   0.01  -0.04
    14   1     0.08   0.25  -0.12     0.04   0.15  -0.07    -0.09  -0.14   0.10
                     22                     23                     24
                      A                      A                      A
 Frequencies --   1245.9209              1269.8176              1313.9774
 Red. masses --      2.4474                 1.7668                 1.5316
 Frc consts  --      2.2384                 1.6785                 1.5580
 IR Inten    --     28.5945                 3.4045                 5.5095
  Atom  AN      X      Y      Z        X      Y      Z        X      Y      Z
     1   6     0.05  -0.05  -0.00    -0.04  -0.01   0.00     0.01  -0.02   0.01
     2   6    -0.10   0.12   0.01     0.13   0.10   0.03    -0.07   0.07   0.08
     3   6    -0.03  -0.08  -0.07    -0.04  -0.12  -0.04    -0.02  -0.03  -0.02
     4   7     0.00   0.06   0.04    -0.02   0.07   0.02     0.00   0.04   0.02
     5   8    -0.01  -0.01  -0.03    -0.03   0.03   0.02     0.01  -0.04  -0.02
     6   6    -0.05  -0.13   0.20     0.04  -0.06  -0.07    -0.05   0.07  -0.11
     7   7     0.03   0.03  -0.13    -0.01   0.03   0.02    -0.00  -0.02   0.06
     8   1    -0.11   0.03   0.04    -0.13   0.03   0.06     0.06  -0.04  -0.00
     9   1     0.22   0.07  -0.11    -0.05  -0.01   0.01     0.19   0.10  -0.10
    10   1     0.29   0.21   0.03    -0.28  -0.35  -0.14     0.40  -0.43  -0.15
    11   1     0.46  -0.06   0.12     0.58  -0.06   0.11     0.13  -0.02   0.03
    12   1     0.15  -0.15   0.21    -0.40  -0.26   0.00     0.69  -0.05  -0.05
    13   1    -0.05  -0.03   0.13     0.10   0.11  -0.16    -0.02  -0.04  -0.03
    14   1     0.20   0.43  -0.31    -0.09  -0.20   0.12    -0.07  -0.11   0.10
                     25                     26                     27
                      A                      A                      A
 Frequencies --   1366.7255              1428.5341              1443.2103
 Red. masses --      1.5901                 1.5332                 1.3850
 Frc consts  --      1.7500                 1.8434                 1.6997
 IR Inten    --      4.8427                 4.8742                13.0496
  Atom  AN      X      Y      Z        X      Y      Z        X      Y      Z
     1   6    -0.02   0.02  -0.00    -0.12  -0.00   0.04    -0.08  -0.01   0.03
     2   6     0.16  -0.05  -0.03     0.11  -0.04  -0.02     0.01   0.03  -0.02
     3   6    -0.03  -0.02  -0.01    -0.01  -0.00  -0.00     0.00   0.00   0.01
     4   7    -0.04   0.04   0.01    -0.02   0.00  -0.00     0.01  -0.00  -0.00
     5   8     0.01  -0.04  -0.03     0.01  -0.01  -0.00    -0.01   0.01  -0.00
     6   6    -0.11   0.02   0.05    -0.05   0.11   0.01     0.02  -0.14   0.03
     7   7     0.02  -0.01   0.02     0.02  -0.04  -0.03    -0.01   0.05   0.02
     8   1    -0.16   0.09   0.04     0.48  -0.30  -0.11     0.37  -0.24  -0.08
     9   1    -0.26  -0.15   0.12     0.34   0.34  -0.18     0.35   0.30  -0.18
    10   1    -0.34   0.18   0.09    -0.13   0.07   0.04    -0.02   0.03  -0.02
    11   1     0.29   0.01   0.09     0.07   0.00   0.02    -0.05   0.00  -0.01
    12   1     0.59   0.41  -0.12    -0.03  -0.39   0.26     0.08   0.54  -0.31
    13   1    -0.06  -0.05  -0.03    -0.10  -0.13   0.21     0.11   0.14  -0.24
    14   1    -0.00   0.11  -0.04     0.06   0.16  -0.11    -0.08  -0.11   0.09
                     28                     29                     30
                      A                      A                      A
 Frequencies --   1629.3982              1739.8013              2999.4972
 Red. masses --      1.1189                 9.6113                 1.0825
 Frc consts  --      1.7502                17.1408                 5.7384
 IR Inten    --     50.8053                11.2378                 8.5253
  Atom  AN      X      Y      Z        X      Y      Z        X      Y      Z
     1   6    -0.00  -0.00   0.00    -0.01  -0.01  -0.00     0.00  -0.00  -0.00
     2   6     0.01   0.00  -0.00    -0.05   0.02  -0.02    -0.00   0.03  -0.08
     3   6     0.01  -0.00   0.00     0.63  -0.18   0.09    -0.00  -0.00  -0.00
     4   7    -0.01   0.00   0.00    -0.50   0.19  -0.03     0.00  -0.00  -0.00
     5   8     0.00  -0.00  -0.00     0.02  -0.02  -0.01    -0.00   0.00  -0.00
     6   6    -0.03  -0.02   0.00     0.01   0.00   0.01     0.00   0.00   0.00
     7   7    -0.00   0.05  -0.07     0.00  -0.00   0.00    -0.00  -0.00   0.00
     8   1    -0.00  -0.00  -0.00    -0.01  -0.01  -0.00     0.00   0.00  -0.01
     9   1     0.00  -0.00   0.00     0.04   0.02  -0.01    -0.00   0.01   0.00
    10   1    -0.01   0.01   0.00    -0.04  -0.13  -0.06     0.04  -0.38   0.92
    11   1     0.01  -0.00  -0.00    -0.26  -0.31  -0.25    -0.00   0.00   0.00
    12   1     0.05   0.06  -0.03    -0.00   0.02   0.01    -0.00  -0.01  -0.03
    13   1    -0.01   0.03   0.69    -0.01  -0.01  -0.07     0.00   0.00  -0.00
    14   1     0.28  -0.61   0.24    -0.03   0.07  -0.03     0.00  -0.00   0.00
                     31                     32                     33
                      A                      A                      A
 Frequencies --   3151.4991              3190.7116              3250.7711
 Red. masses --      1.0908                 1.0513                 1.0973
 Frc consts  --      6.3830                 6.3060                 6.8319
 IR Inten    --     18.2008                 6.9147                 0.8488
  Atom  AN      X      Y      Z        X      Y      Z        X      Y      Z
     1   6     0.00  -0.00  -0.00     0.06  -0.00  -0.02     0.00   0.00  -0.00
     2   6    -0.00   0.00  -0.00    -0.00  -0.00   0.00     0.00   0.00   0.00
     3   6     0.00  -0.00  -0.00    -0.00   0.00   0.00     0.02  -0.08  -0.04
     4   7     0.00   0.00   0.00     0.00  -0.00   0.00    -0.00   0.00  -0.00
     5   8    -0.00  -0.00   0.00     0.00  -0.00   0.00    -0.00   0.00   0.00
     6   6     0.00  -0.04  -0.08    -0.00   0.00   0.00    -0.00   0.00   0.00
     7   7    -0.00   0.00   0.00    -0.00   0.00  -0.00     0.00  -0.00  -0.00
     8   1    -0.00  -0.01   0.00    -0.23  -0.57   0.17    -0.00  -0.01   0.00
     9   1    -0.01   0.01   0.00    -0.44   0.63   0.03    -0.00   0.00   0.00
    10   1     0.00  -0.02   0.03    -0.00   0.00  -0.00    -0.00   0.00  -0.01
    11   1    -0.00   0.01   0.00     0.00  -0.01  -0.00    -0.21   0.88   0.42
    12   1    -0.02   0.43   0.90     0.00  -0.01  -0.01    -0.00  -0.00  -0.01
    13   1     0.00   0.00  -0.00    -0.00   0.00   0.00    -0.00  -0.00   0.00
    14   1    -0.00  -0.01  -0.02     0.00   0.00   0.00     0.00   0.00   0.00
                     34                     35                     36
                      A                      A                      A
 Frequencies --   3317.4071              3532.9414              3625.3788
 Red. masses --      1.1208                 1.0518                 1.0930
 Frc consts  --      7.2674                 7.7350                 8.4640
 IR Inten    --      0.2193                10.1025                16.0193
  Atom  AN      X      Y      Z        X      Y      Z        X      Y      Z
     1   6     0.01  -0.10   0.02     0.00   0.00  -0.00    -0.00  -0.00  -0.00
     2   6     0.00  -0.00   0.00     0.00  -0.00  -0.00    -0.00   0.00   0.00
     3   6     0.00  -0.00  -0.00     0.00   0.00   0.00     0.00   0.00   0.00
     4   7     0.00   0.00   0.00    -0.00   0.00   0.00     0.00   0.00  -0.00
     5   8    -0.00   0.00   0.00    -0.00  -0.00   0.00    -0.00   0.00  -0.00
     6   6    -0.00  -0.00   0.00    -0.00  -0.00  -0.00     0.00  -0.00  -0.00
     7   7     0.00  -0.00  -0.00    -0.02   0.01  -0.05     0.03  -0.06  -0.04
     8   1     0.29   0.68  -0.21    -0.00   0.00   0.00    -0.00   0.00  -0.00
     9   1    -0.37   0.51   0.03    -0.00  -0.00   0.00     0.00  -0.00   0.00
    10   1     0.00   0.00  -0.01    -0.00   0.00   0.00     0.00  -0.00  -0.00
    11   1     0.00   0.00   0.00     0.00  -0.00  -0.00    -0.00  -0.00  -0.00
    12   1    -0.00   0.00  -0.00     0.00   0.01   0.01    -0.00   0.01   0.01
    13   1     0.00  -0.00  -0.00     0.33  -0.46  -0.02    -0.50   0.66  -0.00
    14   1    -0.00   0.00  -0.00    -0.01   0.34   0.75     0.01   0.22   0.52

 -------------------
 - Thermochemistry -
 -------------------
 Temperature   298.150 Kelvin.  Pressure   1.00000 Atm.
 Atom     1 has atomic number  6 and mass  12.00000
 Atom     2 has atomic number  6 and mass  12.00000
 Atom     3 has atomic number  6 and mass  12.00000
 Atom     4 has atomic number  7 and mass  14.00307
 Atom     5 has atomic number  8 and mass  15.99491
 Atom     6 has atomic number  6 and mass  12.00000
 Atom     7 has atomic number  7 and mass  14.00307
 Atom     8 has atomic number  1 and mass   1.00783
 Atom     9 has atomic number  1 and mass   1.00783
 Atom    10 has atomic number  1 and mass   1.00783
 Atom    11 has atomic number  1 and mass   1.00783
 Atom    12 has atomic number  1 and mass   1.00783
 Atom    13 has atomic number  1 and mass   1.00783
 Atom    14 has atomic number  1 and mass   1.00783
 Molecular mass:    99.05584 amu.
 Principal axes and moments of inertia in atomic units:
                           1         2         3
     Eigenvalues --   459.79671 568.88730 879.14832
           X            0.99391  -0.11013  -0.00405
           Y            0.11009   0.99388  -0.00952
           Z            0.00507   0.00901   0.99995
 This molecule is an asymmetric top.
 Rotational symmetry number  1.
 Warning -- assumption of classical behavior for rotation
           may cause significant error
 Rotational temperatures (Kelvin)      0.18837     0.15225     0.09852
 Rotational constants (GHZ):           3.92509     3.17241     2.05283
 Zero-point vibrational energy     294542.9 (Joules/Mol)
                                   70.39745 (Kcal/Mol)
 Warning -- explicit consideration of   9 degrees of freedom as
           vibrations may cause significant error
 Vibrational temperatures:     89.15   191.41   396.20   424.38   514.95
          (Kelvin)            593.66   628.55   746.68   867.13  1072.75
                             1165.59  1225.93  1252.56  1275.00  1358.55
                             1387.61  1440.70  1501.19  1640.05  1658.73
                             1774.11  1792.60  1826.98  1890.52  1966.41
                             2055.34  2076.46  2344.34  2503.19  4315.61
                             4534.30  4590.72  4677.13  4773.01  5083.11
                             5216.11
 
 Zero-point correction=                           0.112185 (Hartree/Particle)
 Thermal correction to Energy=                    0.119302
 Thermal correction to Enthalpy=                  0.120246
 Thermal correction to Gibbs Free Energy=         0.080400
 Sum of electronic and zero-point Energies=           -340.714255
 Sum of electronic and thermal Energies=              -340.707139
 Sum of electronic and thermal Enthalpies=            -340.706195
 Sum of electronic and thermal Free Energies=         -340.746041
 
                     E (Thermal)             CV                S
                      KCal/Mol        Cal/Mol-Kelvin    Cal/Mol-Kelvin
 Total                   74.863             25.995             83.864
 Electronic               0.000              0.000              1.377
 Translational            0.889              2.981             39.690
 Rotational               0.889              2.981             26.933
 Vibrational             73.086             20.033             15.864
 Vibration     1          0.597              1.972              4.394
 Vibration     2          0.613              1.920              2.902
 Vibration     3          0.677              1.719              1.562
 Vibration     4          0.689              1.683              1.445
 Vibration     5          0.733              1.559              1.131
 Vibration     6          0.776              1.443              0.917
 Vibration     7          0.797              1.390              0.837
 Vibration     8          0.874              1.208              0.612
 Vibration     9          0.961              1.026              0.445
                       Q            Log10(Q)             Ln(Q)
 Total Bot       0.104427D-36        -36.981188        -85.152333
 Total V=0       0.417352D+15         14.620503         33.664951
 Vib (Bot)       0.784937D-50        -50.105165       -115.371406
 Vib (Bot)    1  0.333183D+01          0.522682          1.203520
 Vib (Bot)    2  0.153124D+01          0.185043          0.426078
 Vib (Bot)    3  0.699888D+00         -0.154971         -0.356835
 Vib (Bot)    4  0.646565D+00         -0.189388         -0.436081
 Vib (Bot)    5  0.512825D+00         -0.290031         -0.667821
 Vib (Bot)    6  0.427944D+00         -0.368613         -0.848762
 Vib (Bot)    7  0.396692D+00         -0.401546         -0.924595
 Vib (Bot)    8  0.311321D+00         -0.506791         -1.166930
 Vib (Bot)    9  0.247074D+00         -0.607172         -1.398066
 Vib (V=0)       0.313708D+02          1.496526          3.445878
 Vib (V=0)    1  0.386913D+01          0.587614          1.353031
 Vib (V=0)    2  0.211081D+01          0.324448          0.747070
 Vib (V=0)    3  0.136014D+01          0.133584          0.307589
 Vib (V=0)    4  0.131734D+01          0.119698          0.275615
 Vib (V=0)    5  0.121623D+01          0.085017          0.195758
 Vib (V=0)    6  0.115813D+01          0.063758          0.146807
 Vib (V=0)    7  0.113825D+01          0.056238          0.129493
 Vib (V=0)    8  0.108900D+01          0.037028          0.085260
 Vib (V=0)    9  0.105771D+01          0.024369          0.056111
 Electronic      0.200000D+01          0.301030          0.693147
 Translational   0.387502D+08          7.588274         17.472647
 Rotational      0.171661D+06          5.234673         12.053279
 ***** Axes restored to original set *****
 -------------------------------------------------------------------
 Center     Atomic                   Forces (Hartrees/Bohr)
 Number     Number              X              Y              Z
 -------------------------------------------------------------------
      1        6          -0.000001629   -0.000007487    0.000026435
      2        6          -0.000031188   -0.000077870    0.000010158
      3        6           0.000025930    0.000034933   -0.000028399
      4        7          -0.000023444    0.000015060    0.000001198
      5        8           0.000016444   -0.000004592    0.000005694
      6        6           0.000023046    0.000015514    0.000016850
      7        7           0.000001384   -0.000023415    0.000000862
      8        1           0.000014026    0.000005972   -0.000011052
      9        1           0.000001204    0.000018738   -0.000005682
     10        1           0.000000223    0.000021132   -0.000010591
     11        1           0.000001705   -0.000004956   -0.000005173
     12        1          -0.000001820   -0.000004400   -0.000002290
     13        1          -0.000016720    0.000012921   -0.000012489
     14        1          -0.000009160   -0.000001550    0.000014479
 -------------------------------------------------------------------
 Cartesian Forces:  Max     0.000077870 RMS     0.000019262

 GradGradGradGradGradGradGradGradGradGradGradGradGradGradGradGradGradGrad
 Berny optimization.
 Search for a local minimum.
 Step number   1 out of a maximum of    2
 All quantities printed in internal units (Hartrees-Bohrs-Radians)
 Second derivative matrix not updated -- analytic derivatives used.
 ITU=  0
     Eigenvalues ---    0.00021   0.00219   0.00457   0.00765   0.01082
     Eigenvalues ---    0.02049   0.02360   0.03459   0.04466   0.04767
     Eigenvalues ---    0.05727   0.06864   0.07321   0.07979   0.09405
     Eigenvalues ---    0.09723   0.12872   0.16801   0.18859   0.19465
     Eigenvalues ---    0.21289   0.27244   0.29791   0.43644   0.47282
     Eigenvalues ---    0.52848   0.56437   0.62212   0.75401   0.84740
     Eigenvalues ---    0.89498   0.92439   0.94594   1.01024   1.10295
     Eigenvalues ---    1.54009
 Angle between quadratic step and forces=  83.48 degrees.
 Linear search not attempted -- first point.
 B after Tr=    -0.000133   -0.000280    0.000682
         Rot=    1.000000    0.000093    0.000062    0.000054 Ang=   0.01 deg.
 Variable       Old X    -DE/DX   Delta X   Delta X   Delta X     New X
                                 (Linear)    (Quad)   (Total)
    X1       -2.31346  -0.00000   0.00000  -0.00299  -0.00335  -2.31681
    Y1       -2.36351  -0.00001   0.00000  -0.00042  -0.00048  -2.36400
    Z1       -0.18218   0.00003   0.00000   0.00547   0.00631  -0.17588
    X2       -1.40459  -0.00003   0.00000  -0.00074  -0.00092  -1.40551
    Y2        0.18949  -0.00008   0.00000   0.00009   0.00007   0.18955
    Z2        0.56446   0.00001   0.00000   0.00006   0.00053   0.56499
    X3       -1.45983   0.00003   0.00000   0.00310   0.00339  -1.45645
    Y3        2.19050   0.00003   0.00000  -0.00230  -0.00270   2.18780
    Z3       -1.48833  -0.00003   0.00000  -0.00335  -0.00325  -1.49158
    X4        0.44584  -0.00002   0.00000   0.00235   0.00279   0.44863
    Y4        3.64980   0.00002   0.00000  -0.00140  -0.00200   3.64780
    Z4       -1.45811   0.00000   0.00000  -0.00042  -0.00036  -1.45846
    X5        2.05835   0.00002   0.00000  -0.00138  -0.00125   2.05709
    Y5        2.92446  -0.00000   0.00000   0.00038  -0.00004   2.92442
    Z5        0.44755   0.00001   0.00000   0.00373   0.00412   0.45168
    X6        1.40379   0.00002   0.00000  -0.00111  -0.00136   1.40243
    Y6        0.40786   0.00002   0.00000  -0.00036  -0.00055   0.40730
    Z6        1.29446   0.00002   0.00000   0.00125   0.00203   1.29649
    X7        2.92315   0.00000   0.00000  -0.00043  -0.00074   2.92241
    Y7       -1.50705  -0.00002   0.00000   0.00123   0.00067  -1.50637
    Z7        0.16690   0.00000   0.00000  -0.00094   0.00038   0.16728
    X8       -1.05923   0.00001   0.00000   0.00780   0.00725  -1.05198
    Y8       -3.98877   0.00001   0.00000   0.00527   0.00509  -3.98368
    Z8       -0.06094  -0.00001   0.00000  -0.03035  -0.02906  -0.09000
    X9       -4.28288   0.00000   0.00000  -0.00764  -0.00797  -4.29085
    Y9       -2.62507   0.00002   0.00000  -0.00374  -0.00369  -2.62875
    Z9       -0.72401  -0.00001   0.00000   0.02423   0.02487  -0.69914
   X10       -2.56813   0.00000   0.00000  -0.00110  -0.00139  -2.56953
   Y10        0.93680   0.00002   0.00000   0.00513   0.00552   0.94232
   Z10        2.13831  -0.00001   0.00000  -0.00290  -0.00271   2.13560
   X11       -2.96515   0.00000   0.00000   0.00567   0.00616  -2.95899
   Y11        2.48362  -0.00000   0.00000  -0.00421  -0.00470   2.47892
   Z11       -2.86550  -0.00001   0.00000  -0.00656  -0.00670  -2.87220
   X12        1.71135  -0.00000   0.00000  -0.00171  -0.00221   1.70915
   Y12        0.40976  -0.00000   0.00000  -0.00258  -0.00242   0.40733
   Z12        3.34430  -0.00000   0.00000   0.00130   0.00212   3.34642
   X13        4.77913  -0.00002   0.00000  -0.00072  -0.00105   4.77808
   Y13       -1.21492   0.00001   0.00000   0.00173   0.00105  -1.21387
   Z13        0.57406  -0.00001   0.00000  -0.00004   0.00146   0.57552
   X14        2.73146  -0.00001   0.00000   0.00074   0.00066   2.73212
   Y14       -1.49296  -0.00000   0.00000   0.00509   0.00419  -1.48877
   Z14       -1.75079   0.00001   0.00000  -0.00104   0.00026  -1.75053
         Item               Value     Threshold  Converged?
 Maximum Force            0.000078     0.000450     YES
 RMS     Force            0.000019     0.000300     YES
 Maximum Displacement     0.029056     0.001800     NO 
 RMS     Displacement     0.006762     0.001200     NO 
 Predicted change in Energy=-3.207269D-07
 GradGradGradGradGradGradGradGradGradGradGradGradGradGradGradGradGradGrad


 ----------------------------------------------------------------------

 Electric dipole moment (input orientation):
 (Debye = 10**-18 statcoulomb cm , SI units = C m)
                  (au)            (Debye)         (10**-30 SI)
   Tot        0.913994D+00      0.232314D+01      0.774916D+01
   x         -0.444648D+00     -0.113018D+01     -0.376988D+01
   y         -0.790856D+00     -0.201015D+01     -0.670515D+01
   z          0.110543D+00      0.280973D+00      0.937225D+00

 Dipole polarizability, Alpha (input orientation).
 (esu units = cm**3 , SI units = C**2 m**2 J**-1)
 Alpha(0;0):
               (au)            (10**-24 esu)      (10**-40 SI)
   iso        0.531226D+02      0.787196D+01      0.875874D+01
   aniso      0.167631D+02      0.248403D+01      0.276386D+01
   xx         0.596944D+02      0.884580D+01      0.984228D+01
   yx         0.245867D+01      0.364338D+00      0.405380D+00
   yy         0.535567D+02      0.793628D+01      0.883030D+01
   zx         0.611261D+01      0.905796D+00      0.100783D+01
   zy        -0.200705D+01     -0.297414D+00     -0.330918D+00
   zz         0.461168D+02      0.683380D+01      0.760363D+01

 ----------------------------------------------------------------------

 Dipole orientation:
     6         -1.02606679         -0.07375020          3.14852613
     6         -0.90458259          1.07880389          0.58762627
     6         -2.69826292         -0.01218219         -1.36520280
     7         -1.72824876         -0.21705744         -3.55132733
     8          0.74327001          0.58544549         -3.47769101
     6          1.58397768          0.72834528         -0.87927504
     7          2.95310611         -1.45377383         -0.09788862
     1          0.63266103         -0.97955640          3.95931664
     1         -2.74504514          0.11013576          4.26741360
     1         -1.33743951          3.12572712          0.69739448
     1         -4.66580630         -0.54118112         -1.05306592
     1          2.82311757          2.38715239         -0.78263131
     1          4.50559680         -1.70143034         -1.20432485
     1          1.86366522         -3.03643987         -0.24875154

 Electric dipole moment (dipole orientation):
 (Debye = 10**-18 statcoulomb cm , SI units = C m)
                  (au)            (Debye)         (10**-30 SI)
   Tot        0.913994D+00      0.232314D+01      0.774916D+01
   x          0.000000D+00      0.000000D+00      0.000000D+00
   y          0.000000D+00      0.000000D+00      0.000000D+00
   z          0.913994D+00      0.232314D+01      0.774916D+01

 Dipole polarizability, Alpha (dipole orientation).
 (esu units = cm**3 , SI units = C**2 m**2 J**-1)
 Alpha(0;0):
               (au)            (10**-24 esu)      (10**-40 SI)
   iso        0.531226D+02      0.787196D+01      0.875874D+01
   aniso      0.167631D+02      0.248403D+01      0.276386D+01
   xx         0.595837D+02      0.882940D+01      0.982403D+01
   yx        -0.575662D+00     -0.853044D-01     -0.949139D-01
   yy         0.431129D+02      0.638868D+01      0.710836D+01
   zx        -0.394979D+01     -0.585299D+00     -0.651233D+00
   zy        -0.684227D+00     -0.101392D+00     -0.112814D+00
   zz         0.566712D+02      0.839780D+01      0.934381D+01

 ----------------------------------------------------------------------
 Unable to Open any file for archive entry.
 1\1\GINC-R1I3N10\Freq\UM062X\def2SVP\C4H7N2O1(2)\UZG38MN\11-Sep-2023\0
 \\# um062x Def2SVP Freq\\r1_C4H7N2O_hess_g16\\0,2\C,-1.224228,-1.25071
 8,-0.096408\C,-0.743276,0.100273,0.298701\C,-0.77251,1.159165,-0.78759
 1\N,0.235928,1.931391,-0.771596\O,1.08923,1.547555,0.236835\C,0.742852
 ,0.215828,0.685\N,1.546867,-0.797494,0.08832\H,-0.56052,-2.110767,-0.0
 32249\H,-2.266401,-1.389127,-0.383131\H,-1.358997,0.495735,1.131545\H,
 -1.569092,1.314274,-1.516356\H,0.90561,0.216835,1.769729\H,2.529007,-0
 .642908,0.30378\H,1.445428,-0.790043,-0.926477\\Version=ES64L-G16RevC.
 01\State=2-A\HF=-340.8264409\S2=0.755189\S2-1=0.\S2A=0.750021\RMSD=9.3
 79e-09\RMSF=1.926e-05\ZeroPoint=0.1121855\Thermal=0.1193018\ETot=-340.
 707139\HTot=-340.7061949\GTot=-340.7460413\Dipole=-0.4446479,-0.790855
 7,0.1105433\DipoleDeriv=0.0669977,-0.0048452,0.0867461,0.0305581,0.053
 0884,0.0601016,0.1297767,0.0831232,-0.2932161,-0.1266217,0.0130383,-0.
 1037605,0.0176436,-0.0292412,0.1058859,-0.0688024,0.1374988,0.0622753,
 -0.0092582,0.067713,0.0108112,-0.0640493,0.1696565,-0.2364807,-0.00884
 36,-0.2737379,0.1410565,0.3187103,-0.0218152,0.2551393,-0.1412842,-0.3
 3116,-0.0203251,0.5588174,0.1579434,0.0306091,-0.6449541,-0.1222482,-0
 .09661,0.4417632,-0.6473215,0.1891681,-0.5659266,0.0079925,-0.5299253,
 0.5435796,-0.2106896,-0.136771,-0.5071499,0.9127679,-0.0765616,-0.1128
 854,0.0921556,0.4731947,-0.5340764,0.1995243,0.0928954,0.3086384,-0.77
 41406,0.0463267,0.1196848,-0.0845253,-0.3386575,0.0691837,0.0400487,-0
 .0174283,-0.0094715,0.0257655,-0.0145987,-0.0321239,-0.0150437,0.12677
 11,-0.047423,-0.0287208,-0.0450985,0.0016973,0.0303083,-0.0108503,-0.0
 452323,-0.0238833,0.1153605,0.0032508,0.020541,0.0470625,-0.0039262,-0
 .0184867,-0.0621406,0.0716896,-0.0443639,-0.0074215,0.0553715,-0.00537
 43,-0.044445,0.0005246,0.0864897,0.0340711,-0.0534274,0.04967,0.055606
 2,0.0308183,0.0115694,-0.0220287,0.0482405,0.0193182,-0.0088269,-0.031
 6497,-0.0011846,-0.0961893,0.1188062,-0.0032248,0.0024891,-0.1363039,0
 .2497953,-0.0737781,0.0583462,-0.0743162,0.1822813,0.1556153,0.0444835
 ,-0.0290017,0.0131193,0.2531602,0.0680087,-0.0194233,-0.0113285,0.0782
 547\Polar=59.6944049,2.4586735,53.5566682,6.1126113,-2.0070494,46.1167
 641\Quadrupole=4.0295899,-5.3451856,1.3155957,-2.2563768,0.6996478,1.5
 871198\PG=C01 [X(C4H7N2O1)]\NImag=0\\0.60729417,-0.05924587,0.56862560
 ,0.14385196,0.06918135,0.09160642,-0.10393505,-0.04654494,-0.03033120,
 0.51787345,-0.04174638,-0.22339338,-0.04672750,0.03645006,0.53937080,-
 0.03014542,-0.05384228,-0.05281231,-0.04248377,0.04444961,0.45125841,0
 .00320056,-0.00823231,0.00539933,-0.08382453,0.00223779,-0.00496556,0.
 79574730,0.00089384,-0.03098387,0.01304958,0.00432372,-0.10923663,0.06
 119066,0.25114084,0.47926875,0.00717099,-0.00164594,0.01239323,-0.0142
 2351,0.04782469,-0.13304020,0.23875746,-0.13910114,0.45627061,-0.00072
 512,0.00000847,0.00208327,-0.00053932,-0.03803716,0.00694011,-0.421411
 29,-0.29343060,0.01552037,0.57658727,0.00316201,0.00189292,0.00170638,
 -0.02905196,-0.02372919,0.03130636,-0.25696141,-0.30006160,0.03986267,
 0.29172527,0.44781424,-0.00641754,0.00291261,-0.00538228,0.00777412,0.
 02645044,0.00595551,-0.02438786,0.01407165,-0.07709626,0.09156079,-0.1
 2419971,0.23647123,-0.00615414,0.00353839,-0.00126870,-0.01793408,-0.0
 2717911,-0.00046017,-0.07671761,-0.00552124,-0.06941759,-0.14169924,-0
 .02649569,-0.05669128,0.32741871,-0.00612105,-0.00026538,0.00052523,-0
 .02198706,-0.02842086,-0.00352576,-0.01572225,0.00685422,-0.00302982,0
 .03275840,-0.09118792,0.05307468,0.06227935,0.30045402,0.00222948,-0.0
 0076134,0.00117455,0.00461700,0.00742204,-0.00224704,-0.05583853,-0.00
 103181,-0.03402623,-0.09979930,0.01066754,-0.12100775,0.14857005,-0.05
 906465,0.21806024,-0.00769415,-0.01091630,-0.00356965,-0.16740747,0.00
 257257,-0.02625320,-0.01042366,0.02026734,-0.02780961,0.00942666,0.011
 10907,0.00597300,-0.10487154,-0.04637750,-0.00400436,0.52967726,-0.027
 84535,0.00350714,-0.00816850,-0.00258599,-0.07550036,-0.00770354,0.008
 63895,-0.00034306,-0.00542415,0.02708206,-0.02628698,0.04930915,-0.027
 61182,-0.11552781,0.00901366,-0.06784454,0.41110943,-0.00569030,0.0004
 5241,-0.00385568,-0.02139115,-0.00458180,-0.09066590,-0.02484371,0.013
 48780,-0.01714984,-0.01648965,0.04163543,-0.04019503,-0.00941089,0.001
 11472,-0.07753688,0.05129884,0.02880579,0.70631856,-0.00320114,-0.0001
 3479,0.00092179,-0.02923168,0.02553301,0.01591104,-0.00075669,-0.00128
 140,0.00316037,-0.00049582,0.00071937,-0.00355871,0.01213750,0.0078338
 9,-0.00075422,-0.16162152,0.09043845,0.03183854,0.66600707,-0.00300771
 ,-0.00306227,-0.00084975,0.00829630,-0.00094898,0.00001936,0.00274610,
 0.00222469,0.00194770,-0.01031037,-0.00045786,-0.01220743,0.02781245,-
 0.07260607,0.00131071,0.05738170,-0.13213977,-0.05160100,-0.05702523,0
 .25438453,-0.00096682,-0.00086713,0.00096374,-0.00217462,0.00542670,0.
 00778612,0.00154385,-0.00049220,-0.00020425,0.00024081,-0.00089687,0.0
 0231911,-0.00657068,0.00199896,0.01544347,0.03611898,-0.07919321,-0.14
 909333,0.07154833,0.10894255,0.63748490,-0.16499210,0.15427047,-0.0234
 3139,0.01023340,-0.00860138,0.00084351,-0.00112062,-0.00145638,-0.0007
 4474,0.00026863,-0.00057784,0.00139538,0.00002801,0.00141646,-0.000470
 98,0.00016559,-0.00123411,-0.00037132,-0.00285734,-0.00074953,0.000082
 74,0.16661976,0.15143805,-0.24383668,0.00750490,0.01278371,-0.01257704
 ,0.00190988,-0.00064543,-0.00167581,-0.00252445,0.00004378,-0.00057793
 ,0.00186760,-0.00019415,0.00113523,-0.00082465,0.00283753,-0.00151303,
 -0.00008907,0.00093358,0.00128025,0.00073866,-0.15989482,0.25226008,-0
 .02562138,0.00999958,-0.00936493,0.00357184,-0.00653233,0.00396062,0.0
 0030027,0.00058696,-0.00181527,0.00047447,-0.00017538,0.00050338,-0.00
 009377,0.00032577,-0.00036773,0.00045076,-0.00051968,0.00033087,0.0002
 6334,0.00028384,-0.00038573,0.02328681,-0.00836227,0.00711117,-0.33087
 191,-0.03193272,-0.08793826,-0.00313774,0.00239719,0.00015515,0.000321
 59,0.00055064,-0.00045173,-0.00029608,-0.00011385,-0.00004742,0.000063
 75,-0.00041535,0.00029971,0.00102144,0.00017880,-0.00006671,-0.0004522
 2,-0.00054519,-0.00044250,-0.00746344,-0.00588315,-0.00291723,0.340588
 16,-0.03036720,-0.05793082,-0.01618385,-0.02653722,0.00066120,-0.00598
 998,0.00016648,0.00209763,-0.00064299,-0.00040948,0.00005793,-0.000708
 16,-0.00185332,-0.00117262,0.00065077,0.00279406,-0.00526645,-0.001132
 95,0.00117707,0.00120152,0.00047136,0.01829729,0.00767745,0.00547104,0
 .03680796,0.05235850,-0.08498183,-0.01615112,-0.03202137,-0.00601865,0
 .00058575,-0.00274804,0.00034115,-0.00059795,0.00076617,-0.00028002,0.
 00008982,-0.00025778,-0.00054036,-0.00030820,0.00010708,0.00046586,-0.
 00140008,0.00120154,0.00013375,0.00010052,0.00013400,-0.00042164,-0.00
 081140,0.00172631,0.09162015,0.01773963,0.03018756,0.00763630,-0.00308
 448,-0.00514016,-0.12404204,0.04488575,0.09902956,0.00296188,-0.002071
 48,-0.00107000,-0.00012458,0.00049149,0.00049695,0.00052132,-0.0027128
 5,-0.00008989,-0.01361925,0.01462863,0.02239326,-0.00578133,-0.0014769
 2,-0.00261899,-0.00044248,-0.00059153,-0.00000865,0.00038055,0.0005839
 5,-0.00022634,0.13278437,0.01284488,-0.01796611,-0.01926668,0.05068730
 ,-0.06758747,-0.06975825,-0.01476912,0.00636325,0.01825680,0.00323963,
 -0.00434204,0.00116047,0.00080198,0.00158993,-0.00185207,-0.00060471,-
 0.00037614,0.00057608,0.00089665,0.00117833,0.00061145,-0.00111615,-0.
 00223129,-0.00141782,-0.00044233,0.00079821,0.00065401,-0.05181416,0.0
 8272244,0.00132624,-0.00795242,-0.00245279,0.10953201,-0.06922927,-0.1
 8445155,0.01777065,-0.00148375,-0.02228718,-0.00582142,0.00358155,-0.0
 0020331,0.00217524,-0.00268403,0.00067446,-0.00634306,0.00518657,0.006
 65550,-0.00266904,-0.00034872,0.00023178,-0.00044982,0.00006846,-0.001
 62016,-0.00026818,-0.00020217,0.00087060,-0.11381737,0.07141700,0.2012
 1126,0.00029378,0.00059863,0.00014568,0.00566000,-0.00200874,0.0030709
 7,-0.20312521,0.02705495,-0.14902382,-0.01991231,0.00673098,-0.0150364
 6,0.00048002,-0.00482957,-0.00363779,-0.00008280,-0.00307705,0.0012463
 9,0.00010454,-0.00018955,-0.00009560,-0.00002891,-0.00002760,-0.000112
 04,-0.00012981,0.00010365,-0.00011827,-0.00044397,0.00065762,-0.000497
 82,0.21670337,0.00066168,0.00262082,-0.00075269,0.01347441,0.00053191,
 0.00905736,0.03347992,-0.05278418,0.04470798,-0.01237150,0.00213703,-0
 .01898298,-0.00823393,0.00490205,0.00176265,-0.00273522,-0.00459870,0.
 00421769,0.00057167,0.00122861,0.00017686,-0.00012048,-0.00012598,-0.0
 0011736,-0.00044450,-0.00037323,0.00000363,-0.00010828,-0.00018262,0.0
 0059468,-0.02511416,0.04650276,0.00005839,-0.00055438,-0.00004302,-0.0
 1129877,-0.00144380,-0.00299875,-0.15592251,0.04022158,-0.18441215,0.0
 0387613,-0.00439413,-0.00176239,-0.00119249,0.00466702,0.00797017,0.00
 065258,0.00144328,-0.00158123,-0.00026789,0.00049965,0.00027271,0.0000
 4863,0.00011144,0.00015312,0.00016310,0.00039726,0.00000284,0.00048039
 ,-0.00034952,-0.00002949,0.16415764,-0.04043912,0.18230160,-0.00125538
 ,0.00100803,-0.00037501,-0.00410621,0.00142229,-0.02535746,-0.00398347
 ,-0.00015384,-0.00186048,-0.00224998,-0.00089989,-0.00076632,0.0046988
 6,-0.00552376,0.01095808,-0.05858934,0.00198846,-0.04924473,0.00367125
 ,0.00483673,0.02354270,-0.00000848,-0.00014328,-0.00011719,-0.00021237
 ,-0.00050989,0.00009465,0.00095600,-0.00023026,-0.00023909,0.00055981,
 0.00070416,-0.00084387,0.06131374,-0.00010140,0.00018359,0.00013457,0.
 00039027,0.00246924,-0.00497209,-0.00220323,-0.00176496,0.00085119,-0.
 00262695,-0.00368063,0.00388111,0.00754731,-0.01342058,0.03396084,-0.0
 0204656,-0.04166759,-0.00530523,-0.00097525,-0.00470483,-0.02928119,0.
 00016299,0.00007059,-0.00012250,-0.00011603,-0.00002086,0.00008245,0.0
 0051423,0.00029736,0.00067452,0.00026726,0.00036745,-0.00031039,-0.005
 25545,0.06278755,-0.00054339,0.00017081,-0.00001115,0.00045276,-0.0003
 7259,-0.00047830,0.00068356,0.00001497,0.00037696,0.00205685,0.0009431
 2,0.00069508,-0.00395720,0.00679998,-0.00950334,-0.04243286,-0.0031120
 5,-0.32228076,-0.00009568,-0.00508671,-0.01456297,0.00005052,0.0000177
 2,-0.00012938,-0.00003037,-0.00011481,-0.00007679,-0.00007144,0.000169
 27,0.00108190,-0.00001932,-0.00009199,0.00000568,0.04159970,0.00225924
 ,0.34406140,0.00043866,0.00057421,0.00015687,-0.00026625,0.00206743,0.
 00306011,0.00016697,-0.00026389,0.00044429,-0.00048176,-0.00003763,-0.
 00109009,0.00270181,-0.00203234,0.00045997,-0.02115063,-0.00659135,-0.
 00501512,-0.41358831,-0.04313121,-0.08814815,0.00002787,-0.00000837,-0
 .00005068,0.00002194,-0.00005827,0.00004276,-0.00097966,0.00015822,-0.
 00058617,0.00000399,0.00020161,0.00005012,0.00087727,0.00007773,0.0001
 0876,0.43399720,-0.00089572,-0.00027933,-0.00007588,0.00036538,-0.0023
 4548,-0.00340100,-0.00102724,0.00002690,-0.00044436,0.00120759,-0.0005
 8421,0.00200141,-0.00151011,0.00402205,-0.00104020,0.03414601,-0.00440
 044,0.00533867,-0.08403202,-0.02940277,-0.03606320,0.00006818,0.000705
 55,0.00008613,-0.00020028,0.00030712,0.00008406,0.00099684,-0.00001599
 ,0.00027456,-0.00000155,-0.00020020,-0.00003356,-0.00073329,0.00018548
 ,-0.00005575,0.05124838,0.03520723,-0.00032861,-0.00064662,-0.00010193
 ,0.00255807,-0.00338902,-0.00018975,0.00104931,0.00063024,-0.00021041,
 -0.00100531,-0.00010680,-0.00056019,-0.00028296,-0.00161590,-0.0000534
 6,0.01675506,0.00828015,0.00622628,-0.06932278,-0.02877216,-0.07275435
 ,-0.00022424,0.00007404,-0.00017067,0.00003848,0.00005891,0.00006344,0
 .00074252,-0.00021710,0.00023742,-0.00005134,-0.00013620,0.00017233,0.
 00036128,0.00064951,0.00006523,0.08732467,0.03027944,0.07355785,-0.000
 03448,0.00009321,-0.00050453,0.00065751,0.00000669,0.00065514,-0.00103
 523,-0.00005250,-0.00045199,0.00165294,0.00020008,0.00079544,-0.000673
 36,0.00143362,-0.00253922,0.00516942,-0.00616512,0.02574655,-0.0639343
 0,0.01536243,-0.03206005,-0.00042989,-0.00064832,0.00057345,0.00016614
 ,-0.00019507,-0.00011119,0.00019289,-0.00030956,-0.00011217,-0.0000825
 1,0.00003461,0.00003855,-0.00167168,0.00436507,0.00219812,-0.00176910,
 0.00036784,-0.03761414,0.06179165,0.00033023,0.00088777,-0.00007718,-0
 .00006398,0.00070623,0.00125967,0.00115090,0.00001467,-0.00063820,0.00
 112087,-0.00099377,0.00136917,-0.00338011,0.00364373,-0.00021351,-0.00
 058345,-0.00699624,-0.03291855,0.01534499,-0.01817538,0.02842727,-0.00
 046467,-0.00059140,0.00049402,0.00015880,-0.00039557,-0.00007111,-0.00
 024119,-0.00024788,0.00010301,-0.00016488,-0.00002572,0.00018468,0.003
 48999,-0.00110182,-0.00154121,-0.00220452,-0.00322590,-0.00508849,-0.0
 1449299,0.02650128,0.00005824,-0.00029553,-0.00009248,-0.00058412,0.00
 011707,0.00067115,0.00011258,-0.00054659,0.00043481,0.00064288,-0.0000
 1997,0.00052066,-0.00085920,0.00172200,0.00131247,-0.00130234,0.003482
 61,-0.01837409,-0.04710884,-0.01423857,-0.42763522,0.00040655,0.000319
 15,0.00006841,-0.00011419,0.00018592,0.00004444,-0.00009983,0.00001636
 ,0.00008156,-0.00002820,-0.00000052,-0.00005143,0.00224776,-0.00250203
 ,0.00075645,0.00324267,0.00304968,-0.00628180,0.04338604,0.00871042,0.
 44854506\\0.00000163,0.00000749,-0.00002644,0.00003119,0.00007787,-0.0
 0001016,-0.00002593,-0.00003493,0.00002840,0.00002344,-0.00001506,-0.0
 0000120,-0.00001644,0.00000459,-0.00000569,-0.00002305,-0.00001551,-0.
 00001685,-0.00000138,0.00002342,-0.00000086,-0.00001403,-0.00000597,0.
 00001105,-0.00000120,-0.00001874,0.00000568,-0.00000022,-0.00002113,0.
 00001059,-0.00000170,0.00000496,0.00000517,0.00000182,0.00000440,0.000
 00229,0.00001672,-0.00001292,0.00001249,0.00000916,0.00000155,-0.00001
 448\\\@
 The archive entry for this job was punched.


 IF I HAVE SEEN FARTHER, IT IS BY STANDING ON THE
 SHOULDERS OF GIANTS. -- SIR ISAAC NEWTON
 Job cpu time:       0 days  0 hours 19 minutes 19.8 seconds.
 Elapsed time:       0 days  0 hours  0 minutes 49.1 seconds.
 File lengths (MBytes):  RWF=   1312 Int=      0 D2E=      0 Chk=     32 Scr=     32
 Normal termination of Gaussian 16 at Mon Sep 11 12:21:29 2023.
