 Entering Gaussian System, Link 0=/gpfslocalsup/prod/g16/rev-C01/g16/g16
 Input=TS_ts_guess_3iwCru_template_11-21_1-11_optts_g16.com
 Output=TS_ts_guess_3iwCru_template_11-21_1-11_optts_g16.log
 Initial command:
 /gpfslocalsup/prod/g16/rev-C01/g16/l1.exe "/gpfsssd/jobscratch/uzg38mn_1841822/Gau-1782315.inp" -scrdir="/gpfsssd/jobscratch/uzg38mn_1841822/"
 Entering Link 1 = /gpfslocalsup/prod/g16/rev-C01/g16/l1.exe PID=   1782316.
  
 Copyright (c) 1988-2019, Gaussian, Inc.  All Rights Reserved.
  
 This is part of the Gaussian(R) 16 program.  It is based on
 the Gaussian(R) 09 system (copyright 2009, Gaussian, Inc.),
 the Gaussian(R) 03 system (copyright 2003, Gaussian, Inc.),
 the Gaussian(R) 98 system (copyright 1998, Gaussian, Inc.),
 the Gaussian(R) 94 system (copyright 1995, Gaussian, Inc.),
 the Gaussian 92(TM) system (copyright 1992, Gaussian, Inc.),
 the Gaussian 90(TM) system (copyright 1990, Gaussian, Inc.),
 the Gaussian 88(TM) system (copyright 1988, Gaussian, Inc.),
 the Gaussian 86(TM) system (copyright 1986, Carnegie Mellon
 University), and the Gaussian 82(TM) system (copyright 1983,
 Carnegie Mellon University). Gaussian is a federally registered
 trademark of Gaussian, Inc.
  
 This software contains proprietary and confidential information,
 including trade secrets, belonging to Gaussian, Inc.
  
 This software is provided under written license and may be
 used, copied, transmitted, or stored only in accord with that
 written license.
  
 The following legend is applicable only to US Government
 contracts under FAR:
  
                    RESTRICTED RIGHTS LEGEND
  
 Use, reproduction and disclosure by the US Government is
 subject to restrictions as set forth in subparagraphs (a)
 and (c) of the Commercial Computer Software - Restricted
 Rights clause in FAR 52.227-19.
  
 Gaussian, Inc.
 340 Quinnipiac St., Bldg. 40, Wallingford CT 06492
  
  
 ---------------------------------------------------------------
 Warning -- This program may not be used in any manner that
 competes with the business of Gaussian, Inc. or will provide
 assistance to any competitor of Gaussian, Inc.  The licensee
 of this program is prohibited from giving any competitor of
 Gaussian, Inc. access to this program.  By using this program,
 the user acknowledges that Gaussian, Inc. is engaged in the
 business of creating and licensing software in the field of
 computational chemistry and represents and warrants to the
 licensee that it is not a competitor of Gaussian, Inc. and that
 it will not use this program in any manner prohibited above.
 ---------------------------------------------------------------
  

 Cite this work as:
 Gaussian 16, Revision C.01,
 M. J. Frisch, G. W. Trucks, H. B. Schlegel, G. E. Scuseria, 
 M. A. Robb, J. R. Cheeseman, G. Scalmani, V. Barone, 
 G. A. Petersson, H. Nakatsuji, X. Li, M. Caricato, A. V. Marenich, 
 J. Bloino, B. G. Janesko, R. Gomperts, B. Mennucci, H. P. Hratchian, 
 J. V. Ortiz, A. F. Izmaylov, J. L. Sonnenberg, D. Williams-Young, 
 F. Ding, F. Lipparini, F. Egidi, J. Goings, B. Peng, A. Petrone, 
 T. Henderson, D. Ranasinghe, V. G. Zakrzewski, J. Gao, N. Rega, 
 G. Zheng, W. Liang, M. Hada, M. Ehara, K. Toyota, R. Fukuda, 
 J. Hasegawa, M. Ishida, T. Nakajima, Y. Honda, O. Kitao, H. Nakai, 
 T. Vreven, K. Throssell, J. A. Montgomery, Jr., J. E. Peralta, 
 F. Ogliaro, M. J. Bearpark, J. J. Heyd, E. N. Brothers, K. N. Kudin, 
 V. N. Staroverov, T. A. Keith, R. Kobayashi, J. Normand, 
 K. Raghavachari, A. P. Rendell, J. C. Burant, S. S. Iyengar, 
 J. Tomasi, M. Cossi, J. M. Millam, M. Klene, C. Adamo, R. Cammi, 
 J. W. Ochterski, R. L. Martin, K. Morokuma, O. Farkas, 
 J. B. Foresman, and D. J. Fox, Gaussian, Inc., Wallingford CT, 2019.
 
 ******************************************
 Gaussian 16:  ES64L-G16RevC.01  3-Jul-2019
                11-Sep-2023 
 ******************************************
 %mem=96000MB
 %nprocshared=24
 Will use up to   24 processors via shared memory.
 ----------------------------------------------------------------------
 # um062x Def2SVP Freq Opt=(TS, CalcFC, NoEigenTest, MaxCycles=100, Max
 Step=10, NoTrustUpdate, RecalcFC=30) Geom=ModRedun NoSymm
 ----------------------------------------------------------------------
 1/5=1,6=100,8=10,9=1,10=4,11=1,18=120,26=3,38=1,71=30/1,3;
 2/9=110,12=2,15=1,17=6,18=5,40=1/2;
 3/5=43,7=101,11=2,25=1,30=1,71=2,74=-55,116=2,140=1/1,2,3;
 4//1;
 5/5=2,38=5/2;
 8/6=4,10=90,11=11/1;
 11/6=1,8=1,9=11,15=111,16=1,31=1/1,2,10;
 10/6=1,13=1,31=1/2;
 6/7=2,8=2,9=2,10=2,28=1/1;
 7/10=1,25=1,30=1/1,2,3,16;
 1/5=1,6=100,8=10,9=1,10=4,11=1,18=20,26=3,71=30/3(3);
 2/9=110,15=1/2;
 7/9=1,25=1,30=1,44=-1/16;
 99//99;
 2/9=110,15=1/2;
 3/5=43,7=101,11=2,25=1,30=1,71=2,74=-55,116=2,140=1/1,2,3;
 4/5=5,16=3,69=1/1;
 5/5=2,38=5/2;
 8/6=4,10=90,11=11/1;
 11/6=1,8=1,9=11,15=111,16=1,31=1/1,2,10;
 10/6=1,13=1,31=1/2;
 7/10=1,25=1,30=1/1,2,3,16;
 1/5=1,6=100,8=10,9=1,11=1,18=20,26=3,71=30/3(-8);
 2/9=110,15=1/2;
 6/7=2,8=2,9=2,10=2,19=2,28=1/1;
 7/9=1,25=1,30=1,44=-1/16;
 99/9=1/99;
 ------------------------------------------------
 TS_ts_guess_3iwCru_template_11-21_1-11_optts_g16
 ------------------------------------------------
 Symbolic Z-matrix:
 Charge =  0 Multiplicity = 2
 C                     5.2063   -1.1617    1.3635 
 C                     6.24079  -1.02689   0.26959 
 C                     5.8379   -0.10371  -0.85632 
 C                     7.63003  -0.76888   0.83046 
 N                     8.65712  -0.59091  -0.16955 
 C                     9.02656  -1.72748  -0.98066 
 C                     9.19578   0.62826  -0.44414 
 O                     10.00008   0.85413  -1.31592 
 H                     5.54121  -1.85325   2.15198 
 H                     5.01795  -0.18537   1.84436 
 H                     4.24523  -1.52213   0.96716 
 H                     6.22289  -2.23614  -0.30281 
 H                     4.84747  -0.37297  -1.25275 
 H                     6.56131  -0.13052  -1.68487 
 H                     5.7798    0.94168  -0.50225 
 H                     7.59633   0.15203   1.44343 
 H                     7.9067   -1.60189   1.49723 
 H                     10.00052  -1.52738  -1.44231 
 H                     9.07654  -2.62418  -0.34546 
 H                     8.2909   -1.9067   -1.78496 
 H                     8.81602   1.41798   0.24586 
 C                     5.81638  -3.35662  -0.94536 
 C                     6.86907  -4.44411  -1.04518 
 C                     6.25431  -5.71356  -1.58784 
 N                     6.09178  -6.62464  -0.71409 
 O                     6.60634  -6.20905   0.48669 
 C                     7.37831  -4.99993   0.29807 
 N                     7.26219  -4.11676   1.40587 
 H                     4.93203  -3.65913  -0.36472 
 H                     5.51455  -2.95911  -1.92352 
 H                     7.70807  -4.10473  -1.66589 
 H                     5.87322  -5.86257  -2.59914 
 H                     8.43301  -5.3088    0.20109 
 H                     7.62551  -4.55551   2.24945 
 H                     6.28168  -3.89423   1.57483 
 
 Add virtual bond connecting atoms H12        and C2         Dist= 2.53D+00.
 Add virtual bond connecting atoms C22        and H12        Dist= 2.56D+00.
 The following ModRedundant input section has been read:
 B       2      12 B                                                           
 B      12      22 B                                                           
 

 GradGradGradGradGradGradGradGradGradGradGradGradGradGradGradGradGradGrad
 Berny optimization.
 Initialization pass.
                           ----------------------------
                           !    Initial Parameters    !
                           ! (Angstroms and Degrees)  !
 --------------------------                            --------------------------
 ! Name  Definition              Value          Derivative Info.                !
 --------------------------------------------------------------------------------
 ! R1    R(1,2)                  1.5116         calculate D2E/DX2 analytically  !
 ! R2    R(1,9)                  1.1009         calculate D2E/DX2 analytically  !
 ! R3    R(1,10)                 1.1045         calculate D2E/DX2 analytically  !
 ! R4    R(1,11)                 1.1003         calculate D2E/DX2 analytically  !
 ! R5    R(2,3)                  1.5107         calculate D2E/DX2 analytically  !
 ! R6    R(2,4)                  1.5202         calculate D2E/DX2 analytically  !
 ! R7    R(2,12)                 1.338          calculate D2E/DX2 analytically  !
 ! R8    R(3,13)                 1.1003         calculate D2E/DX2 analytically  !
 ! R9    R(3,14)                 1.1002         calculate D2E/DX2 analytically  !
 ! R10   R(3,15)                 1.1053         calculate D2E/DX2 analytically  !
 ! R11   R(4,5)                  1.4445         calculate D2E/DX2 analytically  !
 ! R12   R(4,16)                 1.1068         calculate D2E/DX2 analytically  !
 ! R13   R(4,17)                 1.1023         calculate D2E/DX2 analytically  !
 ! R14   R(5,6)                  1.4444         calculate D2E/DX2 analytically  !
 ! R15   R(5,7)                  1.3609         calculate D2E/DX2 analytically  !
 ! R16   R(6,18)                 1.0962         calculate D2E/DX2 analytically  !
 ! R17   R(6,19)                 1.1            calculate D2E/DX2 analytically  !
 ! R18   R(6,20)                 1.1046         calculate D2E/DX2 analytically  !
 ! R19   R(7,8)                  1.2074         calculate D2E/DX2 analytically  !
 ! R20   R(7,21)                 1.1153         calculate D2E/DX2 analytically  !
 ! R21   R(12,22)                1.3541         calculate D2E/DX2 analytically  !
 ! R22   R(22,23)                1.5168         calculate D2E/DX2 analytically  !
 ! R23   R(22,29)                1.1003         calculate D2E/DX2 analytically  !
 ! R24   R(22,30)                1.0981         calculate D2E/DX2 analytically  !
 ! R25   R(23,24)                1.5113         calculate D2E/DX2 analytically  !
 ! R26   R(23,27)                1.5403         calculate D2E/DX2 analytically  !
 ! R27   R(23,31)                1.0974         calculate D2E/DX2 analytically  !
 ! R28   R(24,25)                1.2728         calculate D2E/DX2 analytically  !
 ! R29   R(24,32)                1.0909         calculate D2E/DX2 analytically  !
 ! R30   R(25,26)                1.3709         calculate D2E/DX2 analytically  !
 ! R31   R(26,27)                1.4469         calculate D2E/DX2 analytically  !
 ! R32   R(27,28)                1.4215         calculate D2E/DX2 analytically  !
 ! R33   R(27,33)                1.1033         calculate D2E/DX2 analytically  !
 ! R34   R(28,34)                1.0179         calculate D2E/DX2 analytically  !
 ! R35   R(28,35)                1.0195         calculate D2E/DX2 analytically  !
 ! A1    A(2,1,9)              111.4764         calculate D2E/DX2 analytically  !
 ! A2    A(2,1,10)             110.6666         calculate D2E/DX2 analytically  !
 ! A3    A(2,1,11)             111.4879         calculate D2E/DX2 analytically  !
 ! A4    A(9,1,10)             107.1769         calculate D2E/DX2 analytically  !
 ! A5    A(9,1,11)             108.5375         calculate D2E/DX2 analytically  !
 ! A6    A(10,1,11)            107.3029         calculate D2E/DX2 analytically  !
 ! A7    A(1,2,3)              114.2884         calculate D2E/DX2 analytically  !
 ! A8    A(1,2,4)              111.9339         calculate D2E/DX2 analytically  !
 ! A9    A(1,2,12)             102.6991         calculate D2E/DX2 analytically  !
 ! A10   A(3,2,4)              114.5164         calculate D2E/DX2 analytically  !
 ! A11   A(3,2,12)             103.2903         calculate D2E/DX2 analytically  !
 ! A12   A(4,2,12)             108.8712         calculate D2E/DX2 analytically  !
 ! A13   A(2,3,13)             111.0413         calculate D2E/DX2 analytically  !
 ! A14   A(2,3,14)             111.7774         calculate D2E/DX2 analytically  !
 ! A15   A(2,3,15)             110.6866         calculate D2E/DX2 analytically  !
 ! A16   A(13,3,14)            108.335          calculate D2E/DX2 analytically  !
 ! A17   A(13,3,15)            107.432          calculate D2E/DX2 analytically  !
 ! A18   A(14,3,15)            107.3889         calculate D2E/DX2 analytically  !
 ! A19   A(2,4,5)              114.5359         calculate D2E/DX2 analytically  !
 ! A20   A(2,4,16)             108.5252         calculate D2E/DX2 analytically  !
 ! A21   A(2,4,17)             108.9216         calculate D2E/DX2 analytically  !
 ! A22   A(5,4,16)             107.611          calculate D2E/DX2 analytically  !
 ! A23   A(5,4,17)             109.4759         calculate D2E/DX2 analytically  !
 ! A24   A(16,4,17)            107.543          calculate D2E/DX2 analytically  !
 ! A25   A(4,5,6)              118.274          calculate D2E/DX2 analytically  !
 ! A26   A(4,5,7)              122.1072         calculate D2E/DX2 analytically  !
 ! A27   A(6,5,7)              119.3679         calculate D2E/DX2 analytically  !
 ! A28   A(5,6,18)             108.6692         calculate D2E/DX2 analytically  !
 ! A29   A(5,6,19)             109.1958         calculate D2E/DX2 analytically  !
 ! A30   A(5,6,20)             111.4819         calculate D2E/DX2 analytically  !
 ! A31   A(18,6,19)            110.5855         calculate D2E/DX2 analytically  !
 ! A32   A(18,6,20)            108.3419         calculate D2E/DX2 analytically  !
 ! A33   A(19,6,20)            108.5689         calculate D2E/DX2 analytically  !
 ! A34   A(5,7,8)              125.2354         calculate D2E/DX2 analytically  !
 ! A35   A(5,7,21)             112.0079         calculate D2E/DX2 analytically  !
 ! A36   A(8,7,21)             122.7532         calculate D2E/DX2 analytically  !
 ! A37   A(2,12,22)            162.7196         calculate D2E/DX2 analytically  !
 ! A38   A(12,22,23)           114.5913         calculate D2E/DX2 analytically  !
 ! A39   A(12,22,29)           102.6132         calculate D2E/DX2 analytically  !
 ! A40   A(12,22,30)           101.8684         calculate D2E/DX2 analytically  !
 ! A41   A(23,22,29)           113.2905         calculate D2E/DX2 analytically  !
 ! A42   A(23,22,30)           113.0577         calculate D2E/DX2 analytically  !
 ! A43   A(29,22,30)           110.4052         calculate D2E/DX2 analytically  !
 ! A44   A(22,23,24)           110.0938         calculate D2E/DX2 analytically  !
 ! A45   A(22,23,27)           115.5163         calculate D2E/DX2 analytically  !
 ! A46   A(22,23,31)           110.2477         calculate D2E/DX2 analytically  !
 ! A47   A(24,23,27)            98.309          calculate D2E/DX2 analytically  !
 ! A48   A(24,23,31)           111.5713         calculate D2E/DX2 analytically  !
 ! A49   A(27,23,31)           110.6139         calculate D2E/DX2 analytically  !
 ! A50   A(23,24,25)           113.9996         calculate D2E/DX2 analytically  !
 ! A51   A(23,24,32)           126.135          calculate D2E/DX2 analytically  !
 ! A52   A(25,24,32)           119.6042         calculate D2E/DX2 analytically  !
 ! A53   A(24,25,26)           109.6565         calculate D2E/DX2 analytically  !
 ! A54   A(25,26,27)           109.841          calculate D2E/DX2 analytically  !
 ! A55   A(23,27,26)           103.8178         calculate D2E/DX2 analytically  !
 ! A56   A(23,27,28)           115.3665         calculate D2E/DX2 analytically  !
 ! A57   A(23,27,33)           109.9027         calculate D2E/DX2 analytically  !
 ! A58   A(26,27,28)           111.9634         calculate D2E/DX2 analytically  !
 ! A59   A(26,27,33)           106.7118         calculate D2E/DX2 analytically  !
 ! A60   A(28,27,33)           108.6952         calculate D2E/DX2 analytically  !
 ! A61   A(27,28,34)           110.4199         calculate D2E/DX2 analytically  !
 ! A62   A(27,28,35)           110.0794         calculate D2E/DX2 analytically  !
 ! A63   A(34,28,35)           107.4579         calculate D2E/DX2 analytically  !
 ! D1    D(9,1,2,3)            179.2737         calculate D2E/DX2 analytically  !
 ! D2    D(9,1,2,4)            -48.4663         calculate D2E/DX2 analytically  !
 ! D3    D(9,1,2,12)            68.1597         calculate D2E/DX2 analytically  !
 ! D4    D(10,1,2,3)           -61.5442         calculate D2E/DX2 analytically  !
 ! D5    D(10,1,2,4)            70.7158         calculate D2E/DX2 analytically  !
 ! D6    D(10,1,2,12)         -172.6581         calculate D2E/DX2 analytically  !
 ! D7    D(11,1,2,3)            57.804          calculate D2E/DX2 analytically  !
 ! D8    D(11,1,2,4)          -169.9361         calculate D2E/DX2 analytically  !
 ! D9    D(11,1,2,12)          -53.31           calculate D2E/DX2 analytically  !
 ! D10   D(1,2,3,13)           -51.9098         calculate D2E/DX2 analytically  !
 ! D11   D(1,2,3,14)          -173.0167         calculate D2E/DX2 analytically  !
 ! D12   D(1,2,3,15)            67.3228         calculate D2E/DX2 analytically  !
 ! D13   D(4,2,3,13)           177.077          calculate D2E/DX2 analytically  !
 ! D14   D(4,2,3,14)            55.97           calculate D2E/DX2 analytically  !
 ! D15   D(4,2,3,15)           -63.6904         calculate D2E/DX2 analytically  !
 ! D16   D(12,2,3,13)           58.8476         calculate D2E/DX2 analytically  !
 ! D17   D(12,2,3,14)          -62.2594         calculate D2E/DX2 analytically  !
 ! D18   D(12,2,3,15)          178.0802         calculate D2E/DX2 analytically  !
 ! D19   D(1,2,4,5)           -178.2448         calculate D2E/DX2 analytically  !
 ! D20   D(1,2,4,16)           -57.9984         calculate D2E/DX2 analytically  !
 ! D21   D(1,2,4,17)            58.8042         calculate D2E/DX2 analytically  !
 ! D22   D(3,2,4,5)            -46.0988         calculate D2E/DX2 analytically  !
 ! D23   D(3,2,4,16)            74.1475         calculate D2E/DX2 analytically  !
 ! D24   D(3,2,4,17)          -169.0499         calculate D2E/DX2 analytically  !
 ! D25   D(12,2,4,5)            68.9195         calculate D2E/DX2 analytically  !
 ! D26   D(12,2,4,16)         -170.8341         calculate D2E/DX2 analytically  !
 ! D27   D(12,2,4,17)          -54.0316         calculate D2E/DX2 analytically  !
 ! D28   D(1,2,12,22)           59.8035         calculate D2E/DX2 analytically  !
 ! D29   D(3,2,12,22)          -59.3058         calculate D2E/DX2 analytically  !
 ! D30   D(4,2,12,22)          178.5987         calculate D2E/DX2 analytically  !
 ! D31   D(2,4,5,6)            -67.7244         calculate D2E/DX2 analytically  !
 ! D32   D(2,4,5,7)            106.4812         calculate D2E/DX2 analytically  !
 ! D33   D(16,4,5,6)           171.5229         calculate D2E/DX2 analytically  !
 ! D34   D(16,4,5,7)           -14.2715         calculate D2E/DX2 analytically  !
 ! D35   D(17,4,5,6)            54.9272         calculate D2E/DX2 analytically  !
 ! D36   D(17,4,5,7)          -130.8673         calculate D2E/DX2 analytically  !
 ! D37   D(4,5,6,18)          -162.1312         calculate D2E/DX2 analytically  !
 ! D38   D(4,5,6,19)           -41.4263         calculate D2E/DX2 analytically  !
 ! D39   D(4,5,6,20)            78.5327         calculate D2E/DX2 analytically  !
 ! D40   D(7,5,6,18)            23.5003         calculate D2E/DX2 analytically  !
 ! D41   D(7,5,6,19)           144.2052         calculate D2E/DX2 analytically  !
 ! D42   D(7,5,6,20)           -95.8359         calculate D2E/DX2 analytically  !
 ! D43   D(4,5,7,8)           -175.6432         calculate D2E/DX2 analytically  !
 ! D44   D(4,5,7,21)             5.0228         calculate D2E/DX2 analytically  !
 ! D45   D(6,5,7,8)             -1.4991         calculate D2E/DX2 analytically  !
 ! D46   D(6,5,7,21)           179.167          calculate D2E/DX2 analytically  !
 ! D47   D(2,12,22,23)        -176.0859         calculate D2E/DX2 analytically  !
 ! D48   D(2,12,22,29)         -52.8564         calculate D2E/DX2 analytically  !
 ! D49   D(2,12,22,30)          61.481          calculate D2E/DX2 analytically  !
 ! D50   D(12,22,23,24)        171.5167         calculate D2E/DX2 analytically  !
 ! D51   D(12,22,23,27)         61.3271         calculate D2E/DX2 analytically  !
 ! D52   D(12,22,23,31)        -64.964          calculate D2E/DX2 analytically  !
 ! D53   D(29,22,23,24)         54.2288         calculate D2E/DX2 analytically  !
 ! D54   D(29,22,23,27)        -55.9607         calculate D2E/DX2 analytically  !
 ! D55   D(29,22,23,31)        177.7482         calculate D2E/DX2 analytically  !
 ! D56   D(30,22,23,24)        -72.3397         calculate D2E/DX2 analytically  !
 ! D57   D(30,22,23,27)        177.4707         calculate D2E/DX2 analytically  !
 ! D58   D(30,22,23,31)         51.1796         calculate D2E/DX2 analytically  !
 ! D59   D(22,23,24,25)       -106.2225         calculate D2E/DX2 analytically  !
 ! D60   D(22,23,24,32)         67.8395         calculate D2E/DX2 analytically  !
 ! D61   D(27,23,24,25)         14.9074         calculate D2E/DX2 analytically  !
 ! D62   D(27,23,24,32)       -171.0306         calculate D2E/DX2 analytically  !
 ! D63   D(31,23,24,25)        131.033          calculate D2E/DX2 analytically  !
 ! D64   D(31,23,24,32)        -54.905          calculate D2E/DX2 analytically  !
 ! D65   D(22,23,27,26)         97.6983         calculate D2E/DX2 analytically  !
 ! D66   D(22,23,27,28)        -25.1808         calculate D2E/DX2 analytically  !
 ! D67   D(22,23,27,33)       -148.4741         calculate D2E/DX2 analytically  !
 ! D68   D(24,23,27,26)        -19.3306         calculate D2E/DX2 analytically  !
 ! D69   D(24,23,27,28)       -142.2097         calculate D2E/DX2 analytically  !
 ! D70   D(24,23,27,33)         94.497          calculate D2E/DX2 analytically  !
 ! D71   D(31,23,27,26)       -136.197          calculate D2E/DX2 analytically  !
 ! D72   D(31,23,27,28)        100.9239         calculate D2E/DX2 analytically  !
 ! D73   D(31,23,27,33)        -22.3694         calculate D2E/DX2 analytically  !
 ! D74   D(23,24,25,26)         -3.5494         calculate D2E/DX2 analytically  !
 ! D75   D(32,24,25,26)       -178.0351         calculate D2E/DX2 analytically  !
 ! D76   D(24,25,26,27)        -10.8503         calculate D2E/DX2 analytically  !
 ! D77   D(25,26,27,23)         19.7644         calculate D2E/DX2 analytically  !
 ! D78   D(25,26,27,28)        144.8563         calculate D2E/DX2 analytically  !
 ! D79   D(25,26,27,33)        -96.3315         calculate D2E/DX2 analytically  !
 ! D80   D(23,27,28,34)       -179.5803         calculate D2E/DX2 analytically  !
 ! D81   D(23,27,28,35)         61.9349         calculate D2E/DX2 analytically  !
 ! D82   D(26,27,28,34)         61.9816         calculate D2E/DX2 analytically  !
 ! D83   D(26,27,28,35)        -56.5032         calculate D2E/DX2 analytically  !
 ! D84   D(33,27,28,34)        -55.6509         calculate D2E/DX2 analytically  !
 ! D85   D(33,27,28,35)       -174.1357         calculate D2E/DX2 analytically  !
 --------------------------------------------------------------------------------
 Trust Radius=1.00D-01 FncErr=1.00D-07 GrdErr=1.00D-06 EigMax=2.50D+02 EigMin=1.00D-04
 Number of steps in this run=    100 maximum allowed number of steps=    210.
 Search for a saddle point of order  1.
 GradGradGradGradGradGradGradGradGradGradGradGradGradGradGradGradGradGrad

                          Input orientation:                          
 ---------------------------------------------------------------------
 Center     Atomic      Atomic             Coordinates (Angstroms)
 Number     Number       Type             X           Y           Z
 ---------------------------------------------------------------------
      1          6           0        5.206303   -1.161705    1.363502
      2          6           0        6.240786   -1.026893    0.269591
      3          6           0        5.837895   -0.103710   -0.856324
      4          6           0        7.630033   -0.768879    0.830458
      5          7           0        8.657116   -0.590909   -0.169552
      6          6           0        9.026565   -1.727479   -0.980664
      7          6           0        9.195777    0.628262   -0.444137
      8          8           0       10.000076    0.854134   -1.315921
      9          1           0        5.541208   -1.853245    2.151977
     10          1           0        5.017948   -0.185373    1.844358
     11          1           0        4.245228   -1.522130    0.967163
     12          1           0        6.222887   -2.236142   -0.302807
     13          1           0        4.847473   -0.372973   -1.252751
     14          1           0        6.561313   -0.130521   -1.684873
     15          1           0        5.779795    0.941682   -0.502252
     16          1           0        7.596333    0.152025    1.443433
     17          1           0        7.906697   -1.601886    1.497234
     18          1           0       10.000515   -1.527378   -1.442306
     19          1           0        9.076539   -2.624176   -0.345462
     20          1           0        8.290898   -1.906700   -1.784963
     21          1           0        8.816020    1.417978    0.245862
     22          6           0        5.816382   -3.356617   -0.945362
     23          6           0        6.869065   -4.444108   -1.045182
     24          6           0        6.254308   -5.713564   -1.587841
     25          7           0        6.091784   -6.624638   -0.714092
     26          8           0        6.606336   -6.209049    0.486686
     27          6           0        7.378312   -4.999929    0.298069
     28          7           0        7.262188   -4.116761    1.405869
     29          1           0        4.932031   -3.659134   -0.364718
     30          1           0        5.514551   -2.959111   -1.923520
     31          1           0        7.708070   -4.104729   -1.665894
     32          1           0        5.873216   -5.862570   -2.599139
     33          1           0        8.433007   -5.308800    0.201090
     34          1           0        7.625512   -4.555505    2.249448
     35          1           0        6.281682   -3.894227    1.574832
 ---------------------------------------------------------------------
                    Distance matrix (angstroms):
                    1          2          3          4          5
     1  C    0.000000
     2  C    1.511612   0.000000
     3  C    2.538876   1.510719   0.000000
     4  C    2.512552   1.520247   2.549400   0.000000
     5  N    3.818923   2.494309   2.942282   1.444504   0.000000
     6  C    4.517700   3.132814   3.580461   2.479794   1.444364
     7  C    4.731537   3.461346   3.461366   2.455229   1.360857
     8  O    5.850058   4.492702   4.295631   3.585836   2.281634
     9  H    1.100946   2.171553   3.492674   2.699158   4.085569
    10  H    1.104502   2.164112   2.823591   2.862073   4.178976
    11  H    1.100298   2.171202   2.805995   3.470300   4.650167
    12  H    2.228103   1.338000   2.236485   2.327490   2.941092
    13  H    2.756018   2.164823   1.100269   3.498448   3.966635
    14  H    3.491702   2.173971   1.100248   2.806520   2.626889
    15  H    2.869524   2.164149   1.105254   2.850529   3.276965
    16  H    2.728465   2.145987   2.906267   1.106769   2.068558
    17  H    2.739301   2.147786   3.473285   1.102286   2.088870
    18  H    5.566933   4.161327   4.438199   3.370454   2.074029
    19  H    4.476394   3.312265   4.135522   2.630075   2.083515
    20  H    4.470187   3.032855   3.182824   2.927765   2.115414
    21  H    4.575362   3.551026   3.521303   2.555516   2.057534
    22  C    3.243561   2.661549   3.254196   3.624811   4.039900
    23  C    4.397807   3.714932   4.465203   4.195760   4.337165
    24  C    5.525229   5.041341   5.672652   5.673685   5.833234
    25  N    5.911354   5.685471   6.527418   6.248340   6.579007
    26  O    5.310798   5.199567   6.298360   5.546313   6.016631
    27  C    4.537040   4.132770   5.261033   4.271836   4.614484
    28  N    3.600113   3.446980   4.821899   3.416829   4.106021
    29  H    3.049446   3.007304   3.701798   4.130525   4.829943
    30  H    3.759016   3.011747   3.065416   4.105700   4.308190
    31  H    4.908917   3.920727   4.490113   4.167224   3.935309
    32  H    6.184289   5.634580   6.016903   6.387036   6.437655
    33  H    5.381563   4.810951   5.911488   4.653145   4.737731
    34  H    4.260910   4.276494   5.714882   4.043772   4.757498
    35  H    2.944109   3.150703   4.524985   3.484242   4.426903
                    6          7          8          9         10
     6  C    0.000000
     7  C    2.421985   0.000000
     8  O    2.779361   1.207445   0.000000
     9  H    4.687960   5.123823   6.264002   0.000000
    10  H    5.140803   4.832542   5.990788   1.774888   0.000000
    11  H    5.166951   5.578879   6.631544   1.786893   1.775806
    12  H    2.928965   4.130721   4.984312   2.576288   3.204348
    13  H    4.401537   4.534763   5.297084   3.776857   3.107465
    14  H    3.020538   3.009249   3.595937   4.327795   3.852331
    15  H    4.230226   3.430822   4.298894   3.861797   2.712424
    16  H    3.384427   2.519513   3.726254   2.957479   2.631092
    17  H    2.722105   3.225556   4.281134   2.467267   3.236028
    18  H    1.096236   2.508132   2.384863   5.736766   6.117934
    19  H    1.100020   3.256118   3.727379   4.396601   5.216822
    20  H    1.104637   3.007100   3.280776   4.802411   5.181423
    21  H    3.382690   1.115332   2.039381   5.005853   4.421682
    22  C    3.600085   5.248885   5.947355   3.453890   4.298468
    23  C    3.469732   5.612823   6.160187   4.324072   5.469269
    24  C    4.893153   7.083718   7.565671   5.421883   6.623403
    25  N    5.715432   7.893808   8.459845   5.593181   7.011628
    26  O    5.300481   7.370241   8.040859   4.783380   6.375808
    27  C    3.880828   5.960754   6.614277   4.088220   5.580527
    28  N    3.810149   5.447617   6.293963   2.939720   4.548043
    29  H    4.569014   6.047115   6.852697   3.156911   4.117574
    30  H    3.839289   5.348761   5.918610   4.222952   4.705012
    31  H    2.803442   5.109517   5.474130   4.933620   5.909313
    32  H    5.446288   7.603575   7.986973   6.225594   7.259939
    33  H    3.817684   6.020535   6.537491   4.910124   6.372791
    34  H    4.516005   6.049180   6.900334   3.414093   5.105051
    35  H    4.331251   5.746398   6.688037   2.246554   3.927501
                   11         12         13         14         15
    11  H    0.000000
    12  H    2.456374   0.000000
    13  H    2.571241   2.503109   0.000000
    14  H    3.786043   2.541314   1.784029   0.000000
    15  H    3.253375   3.214759   1.777861   1.777353   0.000000
    16  H    3.776180   3.261756   3.886034   3.307174   2.776519
    17  H    3.700499   2.545122   4.293192   3.755100   3.871872
    18  H    6.239303   4.008900   5.284167   3.719968   4.979401
    19  H    5.126310   2.880229   4.876073   3.786647   4.858852
    20  H    4.908109   2.565539   3.806934   2.481188   4.008025
    21  H    5.482395   4.514196   4.604640   3.348028   3.163099
    22  C    3.080847   1.354100   3.152048   3.392565   4.321234
    23  C    4.412710   2.417391   4.550171   4.371607   5.521595
    24  C    5.304014   3.707393   5.532936   5.592319   6.759879
    25  N    5.680843   4.409676   6.397013   6.583041   7.575712
    26  O    5.270000   4.068700   6.338693   6.454936   7.265956
    27  C    4.728529   3.055254   5.497173   5.320778   6.204717
    28  N    4.003326   2.745259   5.187972   5.092546   5.605913
    29  H    2.610056   1.922251   3.405085   4.104690   4.680291
    30  H    3.468738   1.910794   2.753731   3.025489   4.160113
    31  H    5.059059   2.748707   4.720138   4.136392   5.526171
    32  H    5.848784   4.306552   5.744614   5.845147   7.120640
    33  H    5.697651   3.818346   6.271531   5.820195   6.826621
    34  H    4.719315   3.723011   6.121803   6.015969   6.418535
    35  H    3.184847   2.505640   4.738292   4.986918   5.286983
                   16         17         18         19         20
    16  H    0.000000
    17  H    1.781972   0.000000
    18  H    4.114362   3.609781   0.000000
    19  H    3.619178   2.410215   1.805482   0.000000
    20  H    3.891441   3.318635   1.784402   1.790019   0.000000
    21  H    2.127075   3.392990   3.595561   4.093476   3.931092
    22  C    4.602731   3.662618   4.593478   3.394845   2.988381
    23  C    5.276984   3.952061   4.297790   2.945285   3.001220
    24  C    6.737565   5.399442   5.619555   4.364953   4.321894
    25  N    7.269233   5.780304   6.464560   5.004832   5.314302
    26  O    6.508358   4.892657   6.095860   4.432346   5.148626
    27  C    5.282236   3.641962   4.686519   2.990369   3.839258
    28  N    4.282009   2.597756   4.723922   2.930331   4.015473
    29  H    4.989273   4.067895   5.603134   4.271821   4.045999
    30  H    5.034814   4.389303   4.733424   3.910269   2.972351
    31  H    5.272604   4.038447   3.456593   2.410038   2.277103
    32  H    7.448951   6.250500   6.096454   5.082080   4.707120
    33  H    5.662513   3.962096   4.411007   2.814260   3.941939
    34  H    4.776123   3.060842   5.332845   3.545288   4.871897
    35  H    4.256492   2.810965   5.341799   3.621020   4.390380
                   21         22         23         24         25
    21  H    0.000000
    22  C    5.763124   0.000000
    23  C    6.310426   1.516820   0.000000
    24  C    7.796392   2.481886   1.511266   0.000000
    25  N    8.545563   3.287749   2.338482   1.272756   0.000000
    26  O    7.944321   3.288032   2.351736   2.161733   1.370892
    27  C    6.577177   2.585773   1.540322   2.308531   2.306362
    28  N    5.864584   2.862946   2.503868   3.539478   3.486191
    29  H    6.421467   1.100337   2.198026   2.732239   3.203327
    30  H    5.896170   1.098138   2.193491   2.871747   3.902820
    31  H    5.948332   2.158083   1.097447   2.169762   3.141377
    32  H    8.352275   3.003000   2.327774   1.090943   2.044975
    33  H    6.737822   3.460072   2.178715   2.847953   2.837307
    34  H    6.412033   3.862265   3.382190   4.236282   3.926347
    35  H    6.033950   2.618570   2.740777   3.648731   3.567966
                   26         27         28         29         30
    26  O    0.000000
    27  C    1.446891   0.000000
    28  N    2.377542   1.421510   0.000000
    29  H    3.167057   2.867282   2.962099   0.000000
    30  H    4.190845   3.545984   3.934364   1.805332   0.000000
    31  H    3.205555   2.183409   3.103979   3.098065   2.488039
    32  H    3.190584   3.376874   4.584450   3.276217   3.002528
    33  H    2.056390   1.103262   2.059919   3.911313   4.307249
    34  H    2.623024   2.016557   1.017903   3.859039   4.941487
    35  H    2.578345   2.013777   1.019540   2.374591   3.701540
                   31         32         33         34         35
    31  H    0.000000
    32  H    2.706961   0.000000
    33  H    2.336868   3.834120   0.000000
    34  H    3.942070   5.318624   2.327074   0.000000
    35  H    3.546999   4.632845   2.918284   1.642643   0.000000
 Symmetry turned off by external request.
 Stoichiometry    C10H20N3O2(2)
 Framework group  C1[X(C10H20N3O2)]
 Deg. of freedom    99
 Full point group                 C1      NOp   1
 Rotational constants (GHZ):           0.9531396           0.3082375           0.2802135
 Standard basis: def2SVP (5D, 7F)
   310 basis functions,   515 primitive gaussians,   325 cartesian basis functions
    59 alpha electrons       58 beta electrons
       nuclear repulsion energy      1079.5815842188 Hartrees.
 NAtoms=   35 NActive=   35 NUniq=   35 SFac= 1.00D+00 NAtFMM=   60 NAOKFM=F Big=F
 Integral buffers will be    131072 words long.
 Raffenetti 2 integral format.
 Two-electron integral symmetry is turned off.
 One-electron integrals computed using PRISM.
   1 Symmetry operations used in ECPInt.
 ECPInt:  NShTT=   11325 NPrTT=   39595 LenC2=   10812 LenP2D=   28164.
 LDataN:  DoStor=T MaxTD1= 4 Len=   56
 NBasis=   310 RedAO= T EigKep=  9.07D-04  NBF=   310
 NBsUse=   310 1.00D-06 EigRej= -1.00D+00 NBFU=   310
 ExpMin= 1.22D-01 ExpMax= 2.27D+03 ExpMxC= 3.41D+02 IAcc=3 IRadAn=         5 AccDes= 0.00D+00
 Harris functional with IExCor= 1009 and IRadAn=       5 diagonalized for initial guess.
 HarFok:  IExCor= 1009 AccDes= 0.00D+00 IRadAn=         5 IDoV= 1 UseB2=F ITyADJ=14
 ICtDFT=  3500011 ScaDFX=  1.000000  1.000000  1.000000  1.000000
 FoFCou: FMM=F IPFlag=           0 FMFlag=      100000 FMFlg1=           0
         NFxFlg=           0 DoJE=T BraDBF=F KetDBF=T FulRan=T
         wScrn=  0.000000 ICntrl=       500 IOpCl=  0 I1Cent=   200000004 NGrid=           0
         NMat0=    1 NMatS0=      1 NMatT0=    0 NMatD0=    1 NMtDS0=    0 NMtDT0=    0
 Symmetry not used in FoFCou.
 Initial guess <Sx>= 0.0000 <Sy>= 0.0000 <Sz>= 0.5000 <S**2>= 0.7500 S= 0.5000
 Requested convergence on RMS density matrix=1.00D-08 within 128 cycles.
 Requested convergence on MAX density matrix=1.00D-06.
 Requested convergence on             energy=1.00D-06.
 No special actions if energy rises.
 Integral accuracy reduced to 1.0D-05 until final iterations.
 Initial convergence to 1.0D-05 achieved.  Increase integral accuracy.
 SCF Done:  E(UM062X) =  -706.815346946     A.U. after   19 cycles
            NFock= 19  Conv=0.30D-08     -V/T= 2.0100
 <Sx>= 0.0000 <Sy>= 0.0000 <Sz>= 0.5000 <S**2>= 0.7589 S= 0.5044
 <L.S>=  0.00000000000    
 Annihilation of the first spin contaminant:
 S**2 before annihilation     0.7589,   after     0.7500
 DoSCS=F DFT=T ScalE2(SS,OS)=  1.000000  1.000000
 Range of M.O.s used for correlation:     1   310
 NBasis=   310 NAE=    59 NBE=    58 NFC=     0 NFV=     0
 NROrb=    310 NOA=    59 NOB=    58 NVA=   251 NVB=   252
   1 Symmetry operations used in ECPInt.
 ECPInt:  NShTT=   11325 NPrTT=   39595 LenC2=   10812 LenP2D=   28164.
 LDataN:  DoStor=T MaxTD1= 5 Len=  102
 Symmetrizing basis deriv contribution to polar:
 IMax=3 JMax=2 DiffMx= 0.00D+00
 G2DrvN: will do    36 centers at a time, making    1 passes.
 Calling FoFCou, ICntrl=  3107 FMM=F I1Cent=   0 AccDes= 0.00D+00.
 End of G2Drv F.D. properties file   721 does not exist.
 End of G2Drv F.D. properties file   722 does not exist.
 End of G2Drv F.D. properties file   788 does not exist.
          IDoAtm=11111111111111111111111111111111111
          Differentiating once with respect to nuclear coordinates.
 Keep R1 and R2 ints in memory in canonical form, NReq=2351492643.
          There are   108 degrees of freedom in the 1st order CPHF.  IDoFFX=6 NUNeed=     0.
    102 vectors produced by pass  0 Test12= 2.94D-14 1.00D-09 XBig12= 1.65D-01 1.24D-01.
 AX will form   102 AO Fock derivatives at one time.
    102 vectors produced by pass  1 Test12= 2.94D-14 1.00D-09 XBig12= 1.83D-02 1.95D-02.
    102 vectors produced by pass  2 Test12= 2.94D-14 1.00D-09 XBig12= 3.40D-04 4.14D-03.
    102 vectors produced by pass  3 Test12= 2.94D-14 1.00D-09 XBig12= 3.29D-06 1.91D-04.
    102 vectors produced by pass  4 Test12= 2.94D-14 1.00D-09 XBig12= 2.52D-08 1.84D-05.
    102 vectors produced by pass  5 Test12= 2.94D-14 1.00D-09 XBig12= 1.76D-10 9.81D-07.
    100 vectors produced by pass  6 Test12= 2.94D-14 1.00D-09 XBig12= 1.09D-12 9.44D-08.
     35 vectors produced by pass  7 Test12= 2.94D-14 1.00D-09 XBig12= 5.98D-15 6.42D-09.
 InvSVY:  IOpt=1 It=  1 EMax= 6.11D-16
 Solved reduced A of dimension   747 with   108 vectors.
 End of Minotr F.D. properties file   721 does not exist.
 End of Minotr F.D. properties file   722 does not exist.
 End of Minotr F.D. properties file   788 does not exist.

 **********************************************************************

            Population analysis using the SCF Density.

 **********************************************************************

 Alpha  occ. eigenvalues --  -19.66864 -19.59557 -14.81378 -14.78752 -14.76961
 Alpha  occ. eigenvalues --  -10.64810 -10.64394 -10.59640 -10.59345 -10.58706
 Alpha  occ. eigenvalues --  -10.58448 -10.57500 -10.57388 -10.56433 -10.55877
 Alpha  occ. eigenvalues --   -1.22486  -1.14426  -1.04172  -1.01835  -0.95259
 Alpha  occ. eigenvalues --   -0.91311  -0.88261  -0.81309  -0.78741  -0.78129
 Alpha  occ. eigenvalues --   -0.78000  -0.68637  -0.67679  -0.65384  -0.63797
 Alpha  occ. eigenvalues --   -0.62601  -0.59750  -0.58988  -0.56883  -0.55679
 Alpha  occ. eigenvalues --   -0.54518  -0.53795  -0.53076  -0.50240  -0.49695
 Alpha  occ. eigenvalues --   -0.48976  -0.47651  -0.47024  -0.46760  -0.45840
 Alpha  occ. eigenvalues --   -0.45543  -0.45474  -0.45150  -0.44766  -0.42743
 Alpha  occ. eigenvalues --   -0.42266  -0.41690  -0.41476  -0.38747  -0.33869
 Alpha  occ. eigenvalues --   -0.32859  -0.31432  -0.30021  -0.23514
 Alpha virt. eigenvalues --    0.03726   0.06477   0.07093   0.08515   0.10022
 Alpha virt. eigenvalues --    0.11008   0.12267   0.12489   0.13143   0.13464
 Alpha virt. eigenvalues --    0.15020   0.15241   0.15686   0.16377   0.16998
 Alpha virt. eigenvalues --    0.17423   0.17803   0.18544   0.19679   0.20471
 Alpha virt. eigenvalues --    0.20961   0.22404   0.22750   0.23503   0.24746
 Alpha virt. eigenvalues --    0.25358   0.26842   0.27019   0.28695   0.29230
 Alpha virt. eigenvalues --    0.30379   0.31325   0.34317   0.35665   0.37790
 Alpha virt. eigenvalues --    0.38390   0.40708   0.42869   0.43124   0.44944
 Alpha virt. eigenvalues --    0.47787   0.49385   0.49641   0.51482   0.52074
 Alpha virt. eigenvalues --    0.52450   0.54511   0.56852   0.57542   0.58670
 Alpha virt. eigenvalues --    0.59341   0.60982   0.61192   0.62752   0.63777
 Alpha virt. eigenvalues --    0.64786   0.65633   0.65982   0.66956   0.67506
 Alpha virt. eigenvalues --    0.67802   0.68416   0.69175   0.69811   0.70403
 Alpha virt. eigenvalues --    0.70649   0.70959   0.71497   0.71934   0.72369
 Alpha virt. eigenvalues --    0.72722   0.73640   0.73794   0.73970   0.74859
 Alpha virt. eigenvalues --    0.75183   0.75920   0.76376   0.77131   0.77602
 Alpha virt. eigenvalues --    0.78063   0.79241   0.79851   0.81364   0.83362
 Alpha virt. eigenvalues --    0.85185   0.86583   0.87459   0.89604   0.90805
 Alpha virt. eigenvalues --    0.91923   0.93271   0.95284   0.96781   0.97817
 Alpha virt. eigenvalues --    0.98911   1.00871   1.01681   1.03157   1.05789
 Alpha virt. eigenvalues --    1.08000   1.09319   1.11702   1.14662   1.15746
 Alpha virt. eigenvalues --    1.16825   1.17628   1.18275   1.20071   1.21098
 Alpha virt. eigenvalues --    1.22082   1.24818   1.26385   1.28568   1.29272
 Alpha virt. eigenvalues --    1.32882   1.33187   1.34434   1.36232   1.39463
 Alpha virt. eigenvalues --    1.44368   1.45896   1.47417   1.47939   1.49789
 Alpha virt. eigenvalues --    1.53018   1.53737   1.56684   1.57632   1.58089
 Alpha virt. eigenvalues --    1.58326   1.59209   1.60558   1.63047   1.65076
 Alpha virt. eigenvalues --    1.65941   1.67496   1.69127   1.70138   1.71412
 Alpha virt. eigenvalues --    1.72500   1.72858   1.76526   1.77281   1.79524
 Alpha virt. eigenvalues --    1.80081   1.80677   1.80841   1.82272   1.82684
 Alpha virt. eigenvalues --    1.84175   1.84715   1.84968   1.85955   1.86108
 Alpha virt. eigenvalues --    1.87101   1.87414   1.88380   1.90040   1.91005
 Alpha virt. eigenvalues --    1.91533   1.92354   1.93716   1.93943   1.95092
 Alpha virt. eigenvalues --    1.95812   1.96884   1.97578   1.99235   2.00006
 Alpha virt. eigenvalues --    2.01006   2.02681   2.03313   2.04703   2.05548
 Alpha virt. eigenvalues --    2.06359   2.07993   2.09130   2.11245   2.11933
 Alpha virt. eigenvalues --    2.13567   2.14728   2.15490   2.16448   2.18809
 Alpha virt. eigenvalues --    2.20224   2.22289   2.23736   2.24956   2.27375
 Alpha virt. eigenvalues --    2.30361   2.33234   2.34771   2.35738   2.37481
 Alpha virt. eigenvalues --    2.38318   2.39653   2.40556   2.42084   2.44147
 Alpha virt. eigenvalues --    2.46433   2.48038   2.49347   2.52238   2.54511
 Alpha virt. eigenvalues --    2.56664   2.57370   2.58891   2.62998   2.64691
 Alpha virt. eigenvalues --    2.65320   2.66397   2.67615   2.69160   2.71444
 Alpha virt. eigenvalues --    2.71876   2.73943   2.79133   2.81126   2.82816
 Alpha virt. eigenvalues --    2.83274   2.84281   2.85270   2.86271   2.89824
 Alpha virt. eigenvalues --    2.90700   2.91637   2.92517   2.93586   2.94723
 Alpha virt. eigenvalues --    2.95550   2.97276   3.00584   3.02061   3.02882
 Alpha virt. eigenvalues --    3.03936   3.06477   3.07228   3.09614   3.10411
 Alpha virt. eigenvalues --    3.10691   3.17747   3.24777   3.25649   3.26414
 Alpha virt. eigenvalues --    3.27798   3.42708   3.44141   3.58506   3.70236
 Alpha virt. eigenvalues --    3.70856
  Beta  occ. eigenvalues --  -19.66854 -19.59558 -14.81338 -14.78748 -14.76962
  Beta  occ. eigenvalues --  -10.64809 -10.64385 -10.59669 -10.59306 -10.58706
  Beta  occ. eigenvalues --  -10.58472 -10.56902 -10.56819 -10.56469 -10.55909
  Beta  occ. eigenvalues --   -1.22421  -1.14425  -1.04113  -1.01802  -0.95087
  Beta  occ. eigenvalues --   -0.90348  -0.87811  -0.81219  -0.78553  -0.77920
  Beta  occ. eigenvalues --   -0.77087  -0.68119  -0.67420  -0.64971  -0.63061
  Beta  occ. eigenvalues --   -0.62477  -0.59136  -0.58905  -0.56306  -0.55388
  Beta  occ. eigenvalues --   -0.54234  -0.53498  -0.52252  -0.50015  -0.49159
  Beta  occ. eigenvalues --   -0.48730  -0.47473  -0.46717  -0.46389  -0.45615
  Beta  occ. eigenvalues --   -0.45194  -0.45021  -0.44980  -0.44515  -0.42054
  Beta  occ. eigenvalues --   -0.41775  -0.41305  -0.40435  -0.38013  -0.33592
  Beta  occ. eigenvalues --   -0.32835  -0.31276  -0.29884
  Beta virt. eigenvalues --   -0.04496   0.04337   0.06536   0.07081   0.08516
  Beta virt. eigenvalues --    0.09973   0.10924   0.12263   0.12516   0.13153
  Beta virt. eigenvalues --    0.13601   0.15051   0.15237   0.15549   0.16470
  Beta virt. eigenvalues --    0.17010   0.17398   0.17834   0.18675   0.19797
  Beta virt. eigenvalues --    0.20558   0.21315   0.22683   0.22875   0.23678
  Beta virt. eigenvalues --    0.24853   0.25548   0.27096   0.27554   0.29118
  Beta virt. eigenvalues --    0.29924   0.30722   0.32099   0.34556   0.35942
  Beta virt. eigenvalues --    0.38194   0.38559   0.40912   0.43087   0.43223
  Beta virt. eigenvalues --    0.45158   0.47934   0.49518   0.49940   0.51583
  Beta virt. eigenvalues --    0.52174   0.53439   0.54727   0.57015   0.57679
  Beta virt. eigenvalues --    0.58870   0.59807   0.61140   0.62257   0.63116
  Beta virt. eigenvalues --    0.63858   0.65167   0.65866   0.66298   0.67411
  Beta virt. eigenvalues --    0.68002   0.68582   0.68627   0.69437   0.70531
  Beta virt. eigenvalues --    0.70836   0.70896   0.71069   0.71698   0.71989
  Beta virt. eigenvalues --    0.72603   0.72978   0.73663   0.74070   0.74179
  Beta virt. eigenvalues --    0.75198   0.75334   0.76057   0.76385   0.77250
  Beta virt. eigenvalues --    0.77823   0.78380   0.79352   0.80189   0.81591
  Beta virt. eigenvalues --    0.83704   0.85887   0.86666   0.87730   0.89844
  Beta virt. eigenvalues --    0.91053   0.92267   0.93382   0.95405   0.96871
  Beta virt. eigenvalues --    0.97902   0.99047   1.01046   1.02105   1.03322
  Beta virt. eigenvalues --    1.06056   1.08377   1.09363   1.11827   1.14757
  Beta virt. eigenvalues --    1.16087   1.17108   1.17743   1.18801   1.20411
  Beta virt. eigenvalues --    1.21430   1.22418   1.24893   1.26573   1.28641
  Beta virt. eigenvalues --    1.29437   1.33047   1.33599   1.34562   1.36252
  Beta virt. eigenvalues --    1.39728   1.44536   1.46243   1.47511   1.48084
  Beta virt. eigenvalues --    1.50074   1.53151   1.53923   1.56741   1.57759
  Beta virt. eigenvalues --    1.58256   1.58973   1.59514   1.61651   1.63732
  Beta virt. eigenvalues --    1.65954   1.66498   1.68027   1.69362   1.70627
  Beta virt. eigenvalues --    1.71640   1.72698   1.73305   1.76947   1.77629
  Beta virt. eigenvalues --    1.79866   1.80238   1.80893   1.81157   1.82465
  Beta virt. eigenvalues --    1.82891   1.84257   1.84991   1.85100   1.86210
  Beta virt. eigenvalues --    1.86337   1.87443   1.87862   1.88734   1.90147
  Beta virt. eigenvalues --    1.91228   1.91755   1.92686   1.93950   1.94192
  Beta virt. eigenvalues --    1.95390   1.96119   1.97054   1.97784   1.99624
  Beta virt. eigenvalues --    2.00287   2.01325   2.02863   2.03507   2.04958
  Beta virt. eigenvalues --    2.05889   2.06469   2.08171   2.09387   2.11450
  Beta virt. eigenvalues --    2.12294   2.13682   2.15094   2.15859   2.16744
  Beta virt. eigenvalues --    2.19397   2.20474   2.22800   2.24343   2.25499
  Beta virt. eigenvalues --    2.27923   2.30984   2.33527   2.35635   2.36525
  Beta virt. eigenvalues --    2.37893   2.38687   2.39910   2.40979   2.42354
  Beta virt. eigenvalues --    2.44684   2.46586   2.48217   2.50198   2.52741
  Beta virt. eigenvalues --    2.54891   2.57260   2.58334   2.59845   2.63723
  Beta virt. eigenvalues --    2.64815   2.65367   2.66681   2.68244   2.69465
  Beta virt. eigenvalues --    2.71540   2.72169   2.74945   2.79602   2.81561
  Beta virt. eigenvalues --    2.83067   2.83529   2.84439   2.86138   2.87524
  Beta virt. eigenvalues --    2.90643   2.91408   2.91900   2.93112   2.94637
  Beta virt. eigenvalues --    2.95044   2.96605   2.97538   3.00975   3.02477
  Beta virt. eigenvalues --    3.03222   3.04074   3.06821   3.07558   3.09965
  Beta virt. eigenvalues --    3.10960   3.11079   3.19752   3.24831   3.25659
  Beta virt. eigenvalues --    3.26514   3.27896   3.42741   3.44158   3.58513
  Beta virt. eigenvalues --    3.70271   3.70858
          Condensed to atoms (all electrons):
               1          2          3          4          5          6
     1  C    4.613772   0.369612  -0.052720  -0.046504   0.006375   0.000009
     2  C    0.369612   5.798083   0.311755   0.240125  -0.108528  -0.001419
     3  C   -0.052720   0.311755   4.661086  -0.051530   0.017043  -0.006669
     4  C   -0.046504   0.240125  -0.051530   4.696683   0.333155  -0.038230
     5  N    0.006375  -0.108528   0.017043   0.333155   6.940543   0.287237
     6  C    0.000009  -0.001419  -0.006669  -0.038230   0.287237   4.506052
     7  C    0.000073  -0.004183   0.001601  -0.021634   0.258382  -0.024144
     8  O   -0.000000   0.000309  -0.000546   0.002033  -0.111316   0.002195
     9  H    0.388018  -0.029407   0.009799  -0.006117   0.000263  -0.000047
    10  H    0.389998  -0.021421  -0.008157  -0.009779  -0.000050   0.000020
    11  H    0.393040  -0.023252  -0.005372   0.008237  -0.000224  -0.000011
    12  H   -0.021683   0.074257  -0.028902  -0.009325  -0.000846   0.017410
    13  H   -0.005147  -0.024374   0.390971   0.009328   0.000441  -0.000064
    14  H    0.007892  -0.014210   0.393851  -0.014240   0.004887  -0.001013
    15  H   -0.006618  -0.027553   0.389039  -0.003085  -0.002159   0.000325
    16  H   -0.004396  -0.030600  -0.010682   0.377679  -0.032469   0.007520
    17  H   -0.002064  -0.052919   0.011818   0.392792  -0.022583  -0.008773
    18  H    0.000012  -0.000739   0.000227   0.006333  -0.028380   0.391124
    19  H    0.000073  -0.012864   0.000856   0.004299  -0.028424   0.397627
    20  H   -0.000024   0.014030  -0.002709  -0.011839  -0.036260   0.403857
    21  H   -0.000027  -0.001748  -0.000571   0.001029  -0.111899   0.007914
    22  C    0.009003  -0.223098   0.009559   0.009391   0.000153  -0.007872
    23  C    0.000678   0.006029   0.000248   0.000918  -0.000046   0.001052
    24  C   -0.000021  -0.000497  -0.000005   0.000007  -0.000003   0.000214
    25  N    0.000001   0.000000   0.000000   0.000001   0.000000  -0.000001
    26  O   -0.000007   0.000006   0.000000  -0.000008  -0.000000  -0.000006
    27  C   -0.000309   0.002036  -0.000005  -0.000536   0.000002  -0.000986
    28  N   -0.004018  -0.002341   0.000268  -0.014544  -0.000146  -0.003110
    29  H    0.001479   0.004406  -0.000553   0.000184  -0.000009   0.000084
    30  H   -0.000217   0.000039   0.001810  -0.000065   0.000003  -0.000532
    31  H   -0.000025   0.001797  -0.000136  -0.000115  -0.000272   0.004015
    32  H   -0.000000   0.000021  -0.000001  -0.000000  -0.000000   0.000007
    33  H   -0.000007   0.000002   0.000001   0.000018  -0.000000  -0.000088
    34  H    0.000095   0.000132  -0.000008   0.000276  -0.000001   0.000052
    35  H    0.002600  -0.000308   0.000067   0.000548   0.000048   0.000102
               7          8          9         10         11         12
     1  C    0.000073  -0.000000   0.388018   0.389998   0.393040  -0.021683
     2  C   -0.004183   0.000309  -0.029407  -0.021421  -0.023252   0.074257
     3  C    0.001601  -0.000546   0.009799  -0.008157  -0.005372  -0.028902
     4  C   -0.021634   0.002033  -0.006117  -0.009779   0.008237  -0.009325
     5  N    0.258382  -0.111316   0.000263  -0.000050  -0.000224  -0.000846
     6  C   -0.024144   0.002195  -0.000047   0.000020  -0.000011   0.017410
     7  C    4.474950   0.670290  -0.000006  -0.000013  -0.000005   0.000309
     8  O    0.670290   7.759679  -0.000000   0.000000  -0.000000   0.000005
     9  H   -0.000006  -0.000000   0.635254  -0.021289  -0.023409  -0.004536
    10  H   -0.000013   0.000000  -0.021289   0.627727  -0.023959   0.006836
    11  H   -0.000005  -0.000000  -0.023409  -0.023959   0.624984  -0.009205
    12  H    0.000309   0.000005  -0.004536   0.006836  -0.009205   0.849801
    13  H   -0.000115  -0.000000   0.000069  -0.001414   0.005155  -0.006370
    14  H    0.002981   0.000021  -0.000397  -0.000174   0.000106  -0.006695
    15  H    0.000648   0.000024  -0.000226   0.006175  -0.001290   0.007020
    16  H   -0.004793   0.000328  -0.001650   0.007420  -0.000431   0.007082
    17  H    0.001119  -0.000110   0.008608  -0.001358  -0.000143  -0.005037
    18  H   -0.006638   0.021311   0.000001   0.000000  -0.000001  -0.000641
    19  H    0.004636   0.000526   0.000034  -0.000003  -0.000004   0.009906
    20  H   -0.001652   0.000346  -0.000010  -0.000018   0.000031  -0.000295
    21  H    0.415731  -0.038549   0.000007  -0.000031  -0.000001  -0.000069
    22  C   -0.000061  -0.000000  -0.000006  -0.000774   0.003193   0.192931
    23  C    0.000008   0.000000   0.000076  -0.000031   0.000112  -0.019506
    24  C    0.000000   0.000000   0.000006   0.000001  -0.000008   0.007306
    25  N   -0.000000  -0.000000  -0.000001  -0.000000  -0.000000  -0.000331
    26  O   -0.000000  -0.000000  -0.000000  -0.000000  -0.000003   0.000104
    27  C   -0.000004  -0.000000  -0.000324   0.000010  -0.000049  -0.007704
    28  N   -0.000011   0.000000   0.003757   0.000072  -0.000017   0.022705
    29  H    0.000000   0.000000  -0.000699   0.000029   0.001771  -0.022481
    30  H    0.000004   0.000000   0.000079  -0.000044   0.000197  -0.000904
    31  H    0.000025   0.000002  -0.000008   0.000002  -0.000009  -0.008313
    32  H    0.000000  -0.000000   0.000000   0.000000  -0.000000  -0.000194
    33  H   -0.000000  -0.000000  -0.000025   0.000000  -0.000001   0.000058
    34  H    0.000000  -0.000000  -0.000328  -0.000005   0.000005  -0.000885
    35  H    0.000002   0.000000   0.003203  -0.000199   0.000133  -0.002811
              13         14         15         16         17         18
     1  C   -0.005147   0.007892  -0.006618  -0.004396  -0.002064   0.000012
     2  C   -0.024374  -0.014210  -0.027553  -0.030600  -0.052919  -0.000739
     3  C    0.390971   0.393851   0.389039  -0.010682   0.011818   0.000227
     4  C    0.009328  -0.014240  -0.003085   0.377679   0.392792   0.006333
     5  N    0.000441   0.004887  -0.002159  -0.032469  -0.022583  -0.028380
     6  C   -0.000064  -0.001013   0.000325   0.007520  -0.008773   0.391124
     7  C   -0.000115   0.002981   0.000648  -0.004793   0.001119  -0.006638
     8  O   -0.000000   0.000021   0.000024   0.000328  -0.000110   0.021311
     9  H    0.000069  -0.000397  -0.000226  -0.001650   0.008608   0.000001
    10  H   -0.001414  -0.000174   0.006175   0.007420  -0.001358   0.000000
    11  H    0.005155   0.000106  -0.001290  -0.000431  -0.000143  -0.000001
    12  H   -0.006370  -0.006695   0.007020   0.007082  -0.005037  -0.000641
    13  H    0.624841  -0.019334  -0.023604  -0.000266  -0.000296   0.000001
    14  H   -0.019334   0.606861  -0.023518  -0.000792   0.000229  -0.000134
    15  H   -0.023604  -0.023518   0.633252   0.005315  -0.000396   0.000002
    16  H   -0.000266  -0.000792   0.005315   0.657096  -0.023323  -0.000288
    17  H   -0.000296   0.000229  -0.000396  -0.023323   0.624003   0.000634
    18  H    0.000001  -0.000134   0.000002  -0.000288   0.000634   0.570287
    19  H    0.000002   0.000087  -0.000032   0.000230   0.007125  -0.012952
    20  H   -0.000255   0.004631  -0.000154  -0.000373  -0.001571  -0.023327
    21  H   -0.000022  -0.000215   0.000773   0.009416  -0.000153   0.002045
    22  C    0.002162   0.001186  -0.000789  -0.000902   0.001107   0.000280
    23  C    0.000110  -0.000049  -0.000014  -0.000003  -0.000944   0.000179
    24  C   -0.000001  -0.000004   0.000000   0.000000   0.000011  -0.000009
    25  N    0.000000   0.000000  -0.000000  -0.000000  -0.000003   0.000000
    26  O   -0.000000  -0.000000  -0.000000   0.000000   0.000068   0.000000
    27  C   -0.000013  -0.000004   0.000002   0.000022   0.000495  -0.000019
    28  N   -0.000006  -0.000006  -0.000004   0.000291   0.027401   0.000039
    29  H    0.000276   0.000020  -0.000044  -0.000009   0.000032  -0.000003
    30  H    0.001015   0.000250   0.000009  -0.000006  -0.000026  -0.000015
    31  H    0.000009  -0.000089   0.000001   0.000009  -0.000071  -0.000262
    32  H   -0.000001  -0.000000   0.000000   0.000000  -0.000000  -0.000000
    33  H    0.000000   0.000001  -0.000000  -0.000000  -0.000128  -0.000014
    34  H    0.000000   0.000000   0.000000  -0.000013  -0.000316   0.000000
    35  H    0.000016  -0.000001  -0.000006  -0.000069  -0.002331  -0.000004
              19         20         21         22         23         24
     1  C    0.000073  -0.000024  -0.000027   0.009003   0.000678  -0.000021
     2  C   -0.012864   0.014030  -0.001748  -0.223098   0.006029  -0.000497
     3  C    0.000856  -0.002709  -0.000571   0.009559   0.000248  -0.000005
     4  C    0.004299  -0.011839   0.001029   0.009391   0.000918   0.000007
     5  N   -0.028424  -0.036260  -0.111899   0.000153  -0.000046  -0.000003
     6  C    0.397627   0.403857   0.007914  -0.007872   0.001052   0.000214
     7  C    0.004636  -0.001652   0.415731  -0.000061   0.000008   0.000000
     8  O    0.000526   0.000346  -0.038549  -0.000000   0.000000   0.000000
     9  H    0.000034  -0.000010   0.000007  -0.000006   0.000076   0.000006
    10  H   -0.000003  -0.000018  -0.000031  -0.000774  -0.000031   0.000001
    11  H   -0.000004   0.000031  -0.000001   0.003193   0.000112  -0.000008
    12  H    0.009906  -0.000295  -0.000069   0.192931  -0.019506   0.007306
    13  H    0.000002  -0.000255  -0.000022   0.002162   0.000110  -0.000001
    14  H    0.000087   0.004631  -0.000215   0.001186  -0.000049  -0.000004
    15  H   -0.000032  -0.000154   0.000773  -0.000789  -0.000014   0.000000
    16  H    0.000230  -0.000373   0.009416  -0.000902  -0.000003   0.000000
    17  H    0.007125  -0.001571  -0.000153   0.001107  -0.000944   0.000011
    18  H   -0.012952  -0.023327   0.002045   0.000280   0.000179  -0.000009
    19  H    0.616975  -0.037188  -0.000190  -0.004948  -0.000901   0.000431
    20  H   -0.037188   0.641118  -0.000323   0.000990  -0.002038   0.000194
    21  H   -0.000190  -0.000323   0.704756  -0.000003   0.000000  -0.000000
    22  C   -0.004948   0.000990  -0.000003   5.091996   0.311642  -0.065176
    23  C   -0.000901  -0.002038   0.000000   0.311642   5.321259   0.281559
    24  C    0.000431   0.000194  -0.000000  -0.065176   0.281559   4.916932
    25  N   -0.000016  -0.000003   0.000000  -0.006430  -0.033469   0.615300
    26  O    0.000092  -0.000003   0.000000   0.003222  -0.085175  -0.082057
    27  C    0.001765  -0.000436  -0.000000  -0.036621   0.269710  -0.088781
    28  N    0.006314   0.000058   0.000000  -0.008561  -0.064376   0.005584
    29  H   -0.000007   0.000026   0.000000   0.383506  -0.029724  -0.000381
    30  H    0.000028   0.001376   0.000001   0.365845  -0.015653  -0.002104
    31  H   -0.000572   0.003249   0.000001  -0.022073   0.357758  -0.016821
    32  H   -0.000010   0.000002   0.000000   0.002332  -0.058682   0.419154
    33  H    0.001462  -0.000101  -0.000000   0.009200  -0.046949   0.007339
    34  H   -0.000159   0.000000  -0.000000  -0.000794   0.015396  -0.000706
    35  H   -0.000216  -0.000015   0.000000   0.018179  -0.027239  -0.000379
              25         26         27         28         29         30
     1  C    0.000001  -0.000007  -0.000309  -0.004018   0.001479  -0.000217
     2  C    0.000000   0.000006   0.002036  -0.002341   0.004406   0.000039
     3  C    0.000000   0.000000  -0.000005   0.000268  -0.000553   0.001810
     4  C    0.000001  -0.000008  -0.000536  -0.014544   0.000184  -0.000065
     5  N    0.000000  -0.000000   0.000002  -0.000146  -0.000009   0.000003
     6  C   -0.000001  -0.000006  -0.000986  -0.003110   0.000084  -0.000532
     7  C   -0.000000  -0.000000  -0.000004  -0.000011   0.000000   0.000004
     8  O   -0.000000  -0.000000  -0.000000   0.000000   0.000000   0.000000
     9  H   -0.000001  -0.000000  -0.000324   0.003757  -0.000699   0.000079
    10  H   -0.000000  -0.000000   0.000010   0.000072   0.000029  -0.000044
    11  H   -0.000000  -0.000003  -0.000049  -0.000017   0.001771   0.000197
    12  H   -0.000331   0.000104  -0.007704   0.022705  -0.022481  -0.000904
    13  H    0.000000  -0.000000  -0.000013  -0.000006   0.000276   0.001015
    14  H    0.000000  -0.000000  -0.000004  -0.000006   0.000020   0.000250
    15  H   -0.000000  -0.000000   0.000002  -0.000004  -0.000044   0.000009
    16  H   -0.000000   0.000000   0.000022   0.000291  -0.000009  -0.000006
    17  H   -0.000003   0.000068   0.000495   0.027401   0.000032  -0.000026
    18  H    0.000000   0.000000  -0.000019   0.000039  -0.000003  -0.000015
    19  H   -0.000016   0.000092   0.001765   0.006314  -0.000007   0.000028
    20  H   -0.000003  -0.000003  -0.000436   0.000058   0.000026   0.001376
    21  H    0.000000   0.000000  -0.000000   0.000000   0.000000   0.000001
    22  C   -0.006430   0.003222  -0.036621  -0.008561   0.383506   0.365845
    23  C   -0.033469  -0.085175   0.269710  -0.064376  -0.029724  -0.015653
    24  C    0.615300  -0.082057  -0.088781   0.005584  -0.000381  -0.002104
    25  N    6.298954   0.166334  -0.051580   0.004305   0.001410  -0.000059
    26  O    0.166334   8.176725   0.257915  -0.067659   0.002342  -0.000133
    27  C   -0.051580   0.257915   4.677932   0.411835  -0.002252   0.007482
    28  N    0.004305  -0.067659   0.411835   6.245266  -0.003705   0.000590
    29  H    0.001410   0.002342  -0.002252  -0.003705   0.614839  -0.020588
    30  H   -0.000059  -0.000133   0.007482   0.000590  -0.020588   0.607961
    31  H    0.002116   0.004032  -0.012541   0.000693   0.007838  -0.007149
    32  H   -0.028326   0.005607   0.005549  -0.000080  -0.000152   0.001503
    33  H    0.002143  -0.041280   0.404636  -0.042695  -0.000106  -0.000287
    34  H   -0.000128  -0.000033  -0.030352   0.358858  -0.000114   0.000003
    35  H    0.000374   0.001030   0.000030   0.320923   0.001586  -0.000551
              31         32         33         34         35
     1  C   -0.000025  -0.000000  -0.000007   0.000095   0.002600
     2  C    0.001797   0.000021   0.000002   0.000132  -0.000308
     3  C   -0.000136  -0.000001   0.000001  -0.000008   0.000067
     4  C   -0.000115  -0.000000   0.000018   0.000276   0.000548
     5  N   -0.000272  -0.000000  -0.000000  -0.000001   0.000048
     6  C    0.004015   0.000007  -0.000088   0.000052   0.000102
     7  C    0.000025   0.000000  -0.000000   0.000000   0.000002
     8  O    0.000002  -0.000000  -0.000000  -0.000000   0.000000
     9  H   -0.000008   0.000000  -0.000025  -0.000328   0.003203
    10  H    0.000002   0.000000   0.000000  -0.000005  -0.000199
    11  H   -0.000009  -0.000000  -0.000001   0.000005   0.000133
    12  H   -0.008313  -0.000194   0.000058  -0.000885  -0.002811
    13  H    0.000009  -0.000001   0.000000   0.000000   0.000016
    14  H   -0.000089  -0.000000   0.000001   0.000000  -0.000001
    15  H    0.000001   0.000000  -0.000000   0.000000  -0.000006
    16  H    0.000009   0.000000  -0.000000  -0.000013  -0.000069
    17  H   -0.000071  -0.000000  -0.000128  -0.000316  -0.002331
    18  H   -0.000262  -0.000000  -0.000014   0.000000  -0.000004
    19  H   -0.000572  -0.000010   0.001462  -0.000159  -0.000216
    20  H    0.003249   0.000002  -0.000101   0.000000  -0.000015
    21  H    0.000001   0.000000  -0.000000  -0.000000   0.000000
    22  C   -0.022073   0.002332   0.009200  -0.000794   0.018179
    23  C    0.357758  -0.058682  -0.046949   0.015396  -0.027239
    24  C   -0.016821   0.419154   0.007339  -0.000706  -0.000379
    25  N    0.002116  -0.028326   0.002143  -0.000128   0.000374
    26  O    0.004032   0.005607  -0.041280  -0.000033   0.001030
    27  C   -0.012541   0.005549   0.404636  -0.030352   0.000030
    28  N    0.000693  -0.000080  -0.042695   0.358858   0.320923
    29  H    0.007838  -0.000152  -0.000106  -0.000114   0.001586
    30  H   -0.007149   0.001503  -0.000287   0.000003  -0.000551
    31  H    0.637829  -0.000666  -0.011550  -0.000316  -0.000137
    32  H   -0.000666   0.595115  -0.000065   0.000012  -0.000041
    33  H   -0.011550  -0.000065   0.671070  -0.010322   0.011048
    34  H   -0.000316   0.000012  -0.010322   0.555036  -0.021687
    35  H   -0.000137  -0.000041   0.011048  -0.021687   0.572290
          Atomic-Atomic Spin Densities.
               1          2          3          4          5          6
     1  C   -0.024557  -0.045094   0.006584   0.008220   0.000057  -0.000082
     2  C   -0.045094   0.934507  -0.054921  -0.053038  -0.004865   0.004673
     3  C    0.006584  -0.054921  -0.016426   0.008957   0.000593  -0.000544
     4  C    0.008220  -0.053038   0.008957  -0.008683   0.004421  -0.000991
     5  N    0.000057  -0.004865   0.000593   0.004421   0.003600  -0.001211
     6  C   -0.000082   0.004673  -0.000544  -0.000991  -0.001211   0.002103
     7  C    0.000009  -0.000053   0.000116   0.000233  -0.000542  -0.000057
     8  O   -0.000000  -0.000002   0.000000   0.000009   0.000089  -0.000040
     9  H    0.003416  -0.006539   0.000248   0.001510   0.000030  -0.000010
    10  H    0.002063  -0.006485  -0.002073  -0.003023  -0.000061   0.000014
    11  H    0.004548  -0.011333   0.001522   0.000738   0.000010  -0.000007
    12  H    0.005133   0.051922   0.005856   0.001297   0.000338  -0.000730
    13  H    0.000971  -0.008480   0.004499   0.000499   0.000015  -0.000032
    14  H    0.000233  -0.008653   0.005347   0.001320   0.000127  -0.000342
    15  H   -0.001455  -0.006168   0.000242  -0.002793  -0.000150   0.000109
    16  H   -0.002298  -0.007721  -0.002634  -0.003473  -0.003580   0.000496
    17  H    0.001388  -0.011310   0.000547   0.007135   0.001803  -0.000535
    18  H    0.000001  -0.000086   0.000012   0.000027   0.000100  -0.000153
    19  H   -0.000002  -0.000048  -0.000007  -0.000051   0.000062   0.000092
    20  H    0.000057  -0.003448   0.000551   0.000431   0.000213  -0.001075
    21  H   -0.000001  -0.000045   0.000006   0.000251   0.000255  -0.000009
    22  C    0.014291  -0.236581   0.017499   0.012129   0.000638  -0.001998
    23  C   -0.000156   0.004350  -0.000248  -0.000231  -0.000016   0.000056
    24  C    0.000016  -0.000439   0.000017   0.000015   0.000001  -0.000024
    25  N    0.000001  -0.000009   0.000000   0.000000   0.000000   0.000000
    26  O   -0.000001   0.000012  -0.000000  -0.000000  -0.000000   0.000000
    27  C   -0.000241   0.004163  -0.000085  -0.000457  -0.000034   0.000200
    28  N   -0.000075  -0.000173   0.000002  -0.000090   0.000006  -0.000010
    29  H   -0.001041   0.007137  -0.000577  -0.000284  -0.000007   0.000023
    30  H   -0.000411   0.006716  -0.001248  -0.000262  -0.000018   0.000100
    31  H   -0.000037   0.001698  -0.000113  -0.000173  -0.000033   0.000360
    32  H   -0.000001   0.000022  -0.000001  -0.000001  -0.000000   0.000001
    33  H   -0.000001   0.000021  -0.000000  -0.000002  -0.000000   0.000001
    34  H    0.000001   0.000006   0.000000   0.000003   0.000000  -0.000000
    35  H    0.000095  -0.000560   0.000008   0.000078   0.000002  -0.000003
               7          8          9         10         11         12
     1  C    0.000009  -0.000000   0.003416   0.002063   0.004548   0.005133
     2  C   -0.000053  -0.000002  -0.006539  -0.006485  -0.011333   0.051922
     3  C    0.000116   0.000000   0.000248  -0.002073   0.001522   0.005856
     4  C    0.000233   0.000009   0.001510  -0.003023   0.000738   0.001297
     5  N   -0.000542   0.000089   0.000030  -0.000061   0.000010   0.000338
     6  C   -0.000057  -0.000040  -0.000010   0.000014  -0.000007  -0.000730
     7  C    0.002014  -0.000366   0.000002  -0.000013   0.000001   0.000021
     8  O   -0.000366  -0.000346  -0.000000   0.000000  -0.000000   0.000000
     9  H    0.000002  -0.000000   0.004283  -0.003607   0.001536   0.000337
    10  H   -0.000013   0.000000  -0.003607   0.038234  -0.005554  -0.000970
    11  H    0.000001  -0.000000   0.001536  -0.005554   0.009863   0.000614
    12  H    0.000021   0.000000   0.000337  -0.000970   0.000614  -0.174224
    13  H    0.000008  -0.000000   0.000072  -0.000697   0.000793   0.000331
    14  H    0.000112  -0.000005   0.000024  -0.000174   0.000107   0.000397
    15  H   -0.000262   0.000008  -0.000147   0.003134  -0.000722  -0.000956
    16  H   -0.001083   0.000043  -0.000817   0.004037  -0.000333  -0.000662
    17  H    0.000144  -0.000003   0.000701  -0.000672   0.000156   0.000379
    18  H    0.000001   0.000019   0.000000  -0.000000   0.000000  -0.000039
    19  H    0.000013  -0.000001   0.000001  -0.000000   0.000000   0.000077
    20  H    0.000067   0.000011   0.000006  -0.000008   0.000008   0.000678
    21  H    0.000444   0.000091  -0.000001   0.000011  -0.000001   0.000007
    22  C    0.000022   0.000000   0.002153  -0.001574   0.005169  -0.005314
    23  C   -0.000000  -0.000000  -0.000019   0.000009  -0.000037   0.003000
    24  C    0.000000   0.000000   0.000004  -0.000001   0.000010  -0.000807
    25  N    0.000000   0.000000   0.000001  -0.000000   0.000001  -0.000012
    26  O   -0.000000  -0.000000  -0.000002   0.000000  -0.000001   0.000018
    27  C   -0.000001  -0.000000  -0.000106   0.000015  -0.000061   0.001989
    28  N    0.000000   0.000000  -0.000087   0.000009  -0.000008   0.000298
    29  H   -0.000000  -0.000000  -0.000241   0.000149  -0.000875   0.008602
    30  H   -0.000001  -0.000000  -0.000040   0.000049  -0.000236   0.008713
    31  H   -0.000001  -0.000000  -0.000008   0.000002  -0.000009   0.000662
    32  H   -0.000000  -0.000000  -0.000000   0.000000  -0.000001   0.000030
    33  H   -0.000000  -0.000000  -0.000001   0.000000  -0.000000   0.000026
    34  H    0.000000   0.000000   0.000002  -0.000000   0.000000  -0.000048
    35  H    0.000000   0.000000   0.000073  -0.000016   0.000028   0.000386
              13         14         15         16         17         18
     1  C    0.000971   0.000233  -0.001455  -0.002298   0.001388   0.000001
     2  C   -0.008480  -0.008653  -0.006168  -0.007721  -0.011310  -0.000086
     3  C    0.004499   0.005347   0.000242  -0.002634   0.000547   0.000012
     4  C    0.000499   0.001320  -0.002793  -0.003473   0.007135   0.000027
     5  N    0.000015   0.000127  -0.000150  -0.003580   0.001803   0.000100
     6  C   -0.000032  -0.000342   0.000109   0.000496  -0.000535  -0.000153
     7  C    0.000008   0.000112  -0.000262  -0.001083   0.000144   0.000001
     8  O   -0.000000  -0.000005   0.000008   0.000043  -0.000003   0.000019
     9  H    0.000072   0.000024  -0.000147  -0.000817   0.000701   0.000000
    10  H   -0.000697  -0.000174   0.003134   0.004037  -0.000672  -0.000000
    11  H    0.000793   0.000107  -0.000722  -0.000333   0.000156   0.000000
    12  H    0.000331   0.000397  -0.000956  -0.000662   0.000379  -0.000039
    13  H    0.005688   0.001471  -0.004431  -0.000216   0.000040   0.000001
    14  H    0.001471   0.006369  -0.004303  -0.000545   0.000103   0.000015
    15  H   -0.004431  -0.004303   0.040214   0.003402  -0.000225  -0.000003
    16  H   -0.000216  -0.000545   0.003402   0.051298  -0.006542  -0.000019
    17  H    0.000040   0.000103  -0.000225  -0.006542   0.010414   0.000019
    18  H    0.000001   0.000015  -0.000003  -0.000019   0.000019  -0.000231
    19  H    0.000000   0.000003   0.000000  -0.000014  -0.000013   0.000058
    20  H    0.000056   0.000398  -0.000094  -0.000135   0.000166   0.000171
    21  H   -0.000003  -0.000015   0.000036   0.000034  -0.000021  -0.000009
    22  C    0.003597   0.002706  -0.001520  -0.001149   0.002706   0.000032
    23  C   -0.000034  -0.000056   0.000012   0.000016  -0.000064  -0.000001
    24  C    0.000005   0.000005  -0.000000  -0.000001   0.000010   0.000001
    25  N    0.000000   0.000000  -0.000000  -0.000000   0.000000  -0.000000
    26  O   -0.000000  -0.000000   0.000000   0.000000  -0.000001  -0.000000
    27  C   -0.000010  -0.000015   0.000004   0.000036  -0.000383  -0.000006
    28  N    0.000000   0.000001  -0.000000   0.000006  -0.000055   0.000001
    29  H   -0.000212  -0.000055   0.000053   0.000029  -0.000082  -0.000000
    30  H   -0.000499  -0.000346   0.000134   0.000026  -0.000040  -0.000000
    31  H   -0.000015  -0.000043   0.000006   0.000013  -0.000070  -0.000019
    32  H   -0.000001  -0.000001   0.000000   0.000000  -0.000000  -0.000000
    33  H   -0.000000  -0.000000   0.000000   0.000000  -0.000009  -0.000000
    34  H    0.000000   0.000000  -0.000000  -0.000000   0.000002  -0.000000
    35  H    0.000002   0.000001  -0.000001  -0.000010   0.000036   0.000000
              19         20         21         22         23         24
     1  C   -0.000002   0.000057  -0.000001   0.014291  -0.000156   0.000016
     2  C   -0.000048  -0.003448  -0.000045  -0.236581   0.004350  -0.000439
     3  C   -0.000007   0.000551   0.000006   0.017499  -0.000248   0.000017
     4  C   -0.000051   0.000431   0.000251   0.012129  -0.000231   0.000015
     5  N    0.000062   0.000213   0.000255   0.000638  -0.000016   0.000001
     6  C    0.000092  -0.001075  -0.000009  -0.001998   0.000056  -0.000024
     7  C    0.000013   0.000067   0.000444   0.000022  -0.000000   0.000000
     8  O   -0.000001   0.000011   0.000091   0.000000  -0.000000   0.000000
     9  H    0.000001   0.000006  -0.000001   0.002153  -0.000019   0.000004
    10  H   -0.000000  -0.000008   0.000011  -0.001574   0.000009  -0.000001
    11  H    0.000000   0.000008  -0.000001   0.005169  -0.000037   0.000010
    12  H    0.000077   0.000678   0.000007  -0.005314   0.003000  -0.000807
    13  H    0.000000   0.000056  -0.000003   0.003597  -0.000034   0.000005
    14  H    0.000003   0.000398  -0.000015   0.002706  -0.000056   0.000005
    15  H    0.000000  -0.000094   0.000036  -0.001520   0.000012  -0.000000
    16  H   -0.000014  -0.000135   0.000034  -0.001149   0.000016  -0.000001
    17  H   -0.000013   0.000166  -0.000021   0.002706  -0.000064   0.000010
    18  H    0.000058   0.000171  -0.000009   0.000032  -0.000001   0.000001
    19  H   -0.000513   0.000059   0.000001   0.000192  -0.000049   0.000007
    20  H    0.000059   0.000717  -0.000005   0.002978  -0.000226   0.000075
    21  H    0.000001  -0.000005  -0.001819  -0.000004   0.000000  -0.000000
    22  C    0.000192   0.002978  -0.000004   0.811567  -0.024960  -0.007242
    23  C   -0.000049  -0.000226   0.000000  -0.024960  -0.011114   0.012238
    24  C    0.000007   0.000075  -0.000000  -0.007242   0.012238   0.013835
    25  N   -0.000000  -0.000000  -0.000000  -0.001430   0.000219  -0.001662
    26  O   -0.000000  -0.000000   0.000000   0.000338  -0.001249   0.000273
    27  C   -0.000038  -0.000244   0.000000  -0.015697  -0.007755  -0.007004
    28  N   -0.000011   0.000013  -0.000000   0.001669   0.000803   0.000080
    29  H   -0.000007  -0.000045   0.000000  -0.013075  -0.000171  -0.000808
    30  H   -0.000012  -0.000308   0.000000  -0.012258   0.000566  -0.000771
    31  H   -0.000038  -0.000618   0.000000  -0.006171  -0.001211  -0.003655
    32  H   -0.000000  -0.000006   0.000000   0.001480  -0.000616  -0.001498
    33  H    0.000004  -0.000005   0.000000  -0.000004  -0.000189  -0.000031
    34  H    0.000002   0.000000   0.000000  -0.000029   0.000008  -0.000003
    35  H    0.000001   0.000001  -0.000000   0.000349  -0.000201   0.000068
              25         26         27         28         29         30
     1  C    0.000001  -0.000001  -0.000241  -0.000075  -0.001041  -0.000411
     2  C   -0.000009   0.000012   0.004163  -0.000173   0.007137   0.006716
     3  C    0.000000  -0.000000  -0.000085   0.000002  -0.000577  -0.001248
     4  C    0.000000  -0.000000  -0.000457  -0.000090  -0.000284  -0.000262
     5  N    0.000000  -0.000000  -0.000034   0.000006  -0.000007  -0.000018
     6  C    0.000000   0.000000   0.000200  -0.000010   0.000023   0.000100
     7  C    0.000000  -0.000000  -0.000001   0.000000  -0.000000  -0.000001
     8  O    0.000000  -0.000000  -0.000000   0.000000  -0.000000  -0.000000
     9  H    0.000001  -0.000002  -0.000106  -0.000087  -0.000241  -0.000040
    10  H   -0.000000   0.000000   0.000015   0.000009   0.000149   0.000049
    11  H    0.000001  -0.000001  -0.000061  -0.000008  -0.000875  -0.000236
    12  H   -0.000012   0.000018   0.001989   0.000298   0.008602   0.008713
    13  H    0.000000  -0.000000  -0.000010   0.000000  -0.000212  -0.000499
    14  H    0.000000  -0.000000  -0.000015   0.000001  -0.000055  -0.000346
    15  H   -0.000000   0.000000   0.000004  -0.000000   0.000053   0.000134
    16  H   -0.000000   0.000000   0.000036   0.000006   0.000029   0.000026
    17  H    0.000000  -0.000001  -0.000383  -0.000055  -0.000082  -0.000040
    18  H   -0.000000  -0.000000  -0.000006   0.000001  -0.000000  -0.000000
    19  H   -0.000000  -0.000000  -0.000038  -0.000011  -0.000007  -0.000012
    20  H   -0.000000  -0.000000  -0.000244   0.000013  -0.000045  -0.000308
    21  H   -0.000000   0.000000   0.000000  -0.000000   0.000000   0.000000
    22  C   -0.001430   0.000338  -0.015697   0.001669  -0.013075  -0.012258
    23  C    0.000219  -0.001249  -0.007755   0.000803  -0.000171   0.000566
    24  C   -0.001662   0.000273  -0.007004   0.000080  -0.000808  -0.000771
    25  N    0.037815  -0.004645   0.000048   0.000024  -0.000359  -0.000044
    26  O   -0.004645   0.005495   0.001198  -0.000040   0.000212   0.000017
    27  C    0.000048   0.001198   0.026983  -0.001855   0.001686   0.000499
    28  N    0.000024  -0.000040  -0.001855  -0.000657  -0.000037  -0.000050
    29  H   -0.000359   0.000212   0.001686  -0.000037  -0.023394   0.002707
    30  H   -0.000044   0.000017   0.000499  -0.000050   0.002707  -0.025689
    31  H    0.000155   0.000043   0.004508  -0.000214   0.000164   0.000860
    32  H    0.000049   0.000044   0.000327  -0.000004   0.000120   0.000113
    33  H   -0.000004  -0.000011   0.000294   0.000058   0.000016   0.000013
    34  H   -0.000002   0.000009  -0.000057   0.000152   0.000012   0.000000
    35  H    0.000003  -0.000055   0.000079  -0.000041  -0.000155   0.000002
              31         32         33         34         35
[...]
 0004190,-0.00000165,-0.00002455,-0.00000384,-0.00001006,0.00004474,0.0
 0002817,0.00008195,0.00020738,0.00000636,0.00000728,-0.00006397,-0.000
 05556,0.00007960,-0.00012393,-0.00195563,-0.00177754,-0.00758299,0.000
 35685,-0.00028819,0.00005979,-0.00008195,-0.00018606,0.00004533,0.0002
 2389,0.00001402,0.00031330,-0.00008676,0.00000563,-0.00000404,0.000091
 83,0.00005190,0.00008099,0.00003406,-0.00000871,0.00005941,0.00006570,
 0.00000863,0.00003424,-0.00024452,-0.00005209,0.00002769,-0.00000792,0
 .00001178,0.00000136,-0.05951524,0.11198650,-0.27367241,0.00294135,-0.
 00429272,0.00535445,-0.00021772,0.00045322,0.00025999,0.00023800,0.000
 08838,0.00021760,-0.00020254,-0.00019970,0.00022130,0.00059681,-0.0012
 2949,-0.00025926,-0.00011913,0.00025136,-0.00019728,-0.00592680,0.0036
 3418,-0.01016955,0.06429305,-0.11120724,0.28338333,-0.00005771,0.00009
 600,-0.00001545,-0.00005307,-0.00018955,0.00000945,-0.00001737,0.00001
 668,0.00009810,-0.00020378,0.00010477,0.00016474,-0.00016911,-0.000236
 47,-0.00016903,-0.00045662,-0.00127136,0.00011514,-0.00000167,0.000036
 73,-0.00001622,0.00001145,-0.00002917,-0.00005412,-0.00000760,-0.00001
 239,-0.00001748,0.00002070,0.00003955,0.00005087,0.00008913,-0.0000330
 4,-0.00000327,0.00017477,-0.00011758,-0.00010475,-0.00000062,-0.000019
 75,0.00001420,0.00002317,0.00004745,-0.00004571,0.00000456,0.00003605,
 -0.00004818,0.00005966,0.00000036,0.00000048,0.00000310,0.00000503,-0.
 00000231,-0.00019755,-0.00016956,-0.00005932,0.00003583,-0.00031308,-0
 .00016295,-0.00003658,-0.00000152,-0.00040913,0.00001768,-0.00004161,-
 0.00000481,-0.01727642,-0.00482382,0.01218758,-0.21006635,-0.06743764,
 0.12278520,-0.00767679,-0.00359564,0.00761341,-0.00019270,-0.00231882,
 -0.00221711,0.00024526,0.00337464,-0.00283364,0.00922375,0.00470039,-0
 .00747116,-0.00018394,0.00022664,-0.00012937,-0.00207783,0.00326052,-0
 .00036848,0.00074101,-0.00009136,-0.00020091,0.22662043,0.00009776,0.0
 0000233,0.00000142,0.00006548,-0.00018150,-0.00006621,0.00003421,0.000
 02461,-0.00003076,0.00027676,0.00004352,-0.00020824,0.00002351,0.00060
 490,0.00039084,-0.00089554,-0.00139540,-0.00127893,-0.00030938,-0.0004
 7711,0.00025641,0.00017182,0.00016796,-0.00014939,0.00001466,0.0000053
 2,0.00002098,-0.00005731,-0.00004498,-0.00001502,-0.00012294,0.0000257
 8,0.00000205,-0.00012864,0.00065031,-0.00003674,-0.00003147,0.00002045
 ,-0.00001640,-0.00000620,-0.00005572,0.00006317,-0.00001167,-0.0000099
 8,0.00001881,-0.00004964,0.00002563,0.00001995,-0.00002176,-0.00002376
 ,0.00000557,0.00006272,0.00003952,0.00017837,-0.00027884,-0.00013716,-
 0.00018627,-0.00001640,-0.00109570,0.00052938,-0.00002448,0.00006772,0
 .00003225,0.01976814,0.00737993,-0.01465391,-0.06644262,-0.06734364,0.
 05013000,-0.01804642,-0.00848641,0.01697306,0.00120867,-0.00458477,-0.
 00110349,-0.00219545,-0.00190718,0.00110325,-0.00518127,-0.00268099,0.
 00201371,0.00026565,0.00004986,0.00020757,0.00368744,-0.00331734,-0.00
 026107,-0.00078600,0.00066788,0.00046872,0.06859323,0.08166264,-0.0000
 1478,-0.00000903,-0.00004580,-0.00000665,-0.00012698,-0.00001276,-0.00
 001072,-0.00001352,-0.00001773,0.00026275,-0.00003842,-0.00017788,0.00
 012176,0.00051817,-0.00007450,0.00019213,-0.00009776,0.00031286,-0.000
 23426,-0.00024842,0.00020700,0.00008140,0.00014480,-0.00010133,0.00001
 146,0.00000456,0.00001556,-0.00000940,-0.00001063,0.00000363,-0.000039
 22,0.00000653,0.00000973,0.00029034,0.00032591,0.00008376,-0.00003968,
 0.00001397,-0.00000075,0.00003095,-0.00000177,0.00003523,-0.00000554,-
 0.00000349,-0.00000158,-0.00005247,0.00003223,0.00001750,-0.00000519,0
 .00000146,-0.00003930,0.00007032,0.00012146,0.00002953,-0.00062844,-0.
 00031588,-0.00068492,0.00000237,0.00009778,0.00043890,0.00000524,0.000
 08031,0.00002775,0.00176025,0.00011798,-0.00088855,0.11940479,0.049309
 00,-0.13632607,-0.01297902,-0.00403165,0.01178878,0.00001142,-0.004788
 44,-0.00472982,-0.00041803,0.00503007,-0.00236925,0.02132455,0.0074967
 4,-0.01068591,-0.00134337,0.00108708,-0.00101268,0.00017982,-0.0000073
 1,0.00127311,-0.00036606,-0.00047697,0.00048226,-0.12783204,-0.0544843
 9,0.14165445,-0.00001469,-0.00005998,-0.00000813,-0.00003522,0.0002208
 9,0.00009865,0.00000347,-0.00003872,-0.00005508,0.00010052,-0.00002331
 ,-0.00007209,-0.00005817,-0.00003371,0.00005768,-0.00003720,-0.0000206
 0,-0.00003956,0.00007257,0.00006766,-0.00005572,-0.00006150,-0.0000163
 5,0.00006841,-0.00000434,0.00000666,0.00000845,0.00001232,-0.00000827,
 -0.00001652,-0.00000462,0.00000744,0.00000690,0.00001721,-0.00025019,-
 0.00012737,-0.00000183,0.00001016,0.00000121,-0.00000442,0.00000066,0.
 00000873,0.00000601,-0.00002038,0.00001587,-0.00002837,-0.00001288,-0.
 00000042,0.00000790,0.00001685,0.00001713,-0.00001050,-0.00002026,-0.0
 0000106,0.00004458,0.00000924,-0.00000525,0.00003120,-0.00000374,-0.00
 000730,-0.00000172,0.00000894,0.00000374,-0.00017658,-0.00025641,0.000
 06419,-0.00081981,0.00172745,-0.00894914,-0.07292286,-0.02406746,-0.10
 524522,-0.00419462,0.00537445,0.00832434,0.01156489,-0.00414609,-0.000
 46260,0.00058924,-0.00396234,0.00040562,-0.00058945,-0.00006350,-0.000
 47011,0.00000589,-0.00001052,0.00007101,0.00016951,-0.00007878,0.00002
 862,0.00029508,0.00056454,0.00053418,0.06592498,0.00000833,-0.00000159
 ,-0.00001627,0.00002245,0.00027368,0.00009468,0.00000412,-0.00001249,0
 .00000355,-0.00006052,0.00002769,-0.00000550,0.00000537,-0.00006934,0.
 00001866,-0.00005809,0.00004193,-0.00003657,0.00003637,0.00004228,-0.0
 0003549,-0.00001312,-0.00002140,0.00002636,-0.00000467,-0.00000705,0.0
 0001698,-0.00000172,-0.00000499,0.00000653,0.00000220,-0.00000095,0.00
 000059,-0.00002374,-0.00036707,-0.00008360,0.00001341,-0.00000262,-0.0
 0000803,-0.00001393,-0.00000351,-0.00000733,-0.00000114,0.00000520,0.0
 0000328,0.00001540,-0.00000896,0.00000683,0.00001679,0.00000805,0.0000
 2006,0.00000064,-0.00001964,-0.00000217,0.00006940,0.00001515,0.000047
 17,0.00000108,0.00001812,-0.00003521,-0.00000214,-0.00000942,-0.000004
 01,-0.00068785,0.00235134,0.00069475,-0.00578934,0.00300551,-0.0185818
 5,-0.02530851,-0.06082627,-0.05109097,0.01252672,0.00474057,0.02155812
 ,-0.00304692,0.00189287,0.00786805,-0.00285841,-0.00623790,0.00078186,
 -0.00019009,0.00131697,-0.00175454,0.00018214,-0.00016420,-0.00009015,
 0.00023483,-0.00048715,0.00019950,-0.00004013,0.00039849,0.00056944,0.
 02469526,0.05437352,-0.00000850,0.00000677,-0.00001283,-0.00001031,0.0
 0000967,-0.00000677,-0.00000561,0.00000619,0.00000310,-0.00002514,0.00
 000930,-0.00001470,0.00000671,-0.00002254,0.00000344,-0.00000806,0.000
 02188,-0.00001016,0.00000508,0.00001182,-0.00000122,-0.00000183,-0.000
 00668,0.00000008,-0.00000255,-0.00000013,0.00001204,0.00000214,-0.0000
 0134,0.00000655,0.00000743,-0.00000147,0.00000009,0.00003795,-0.000055
 64,-0.00003000,0.00000809,-0.00000540,0.00000186,-0.00000217,-0.000001
 86,-0.00000025,0.00000127,0.00000427,0.00000213,0.00000591,-0.00000481
 ,0.00000432,0.00001088,0.00000803,0.00001185,0.00000246,-0.00000280,0.
 00000203,0.00001478,-0.00000021,0.00000208,-0.00000471,-0.00000042,-0.
 00000294,0.00000032,-0.00000314,-0.00000199,0.00009902,0.00002682,0.00
 015202,0.00017310,0.00274057,0.00080676,-0.09919847,-0.04263126,-0.306
 74391,-0.00523101,-0.00456004,-0.02122952,-0.00268143,0.00356414,0.001
 36523,0.00087543,0.00190406,0.00009363,-0.00010786,-0.00045899,-0.0001
 8788,-0.00001295,-0.00003542,-0.00008020,0.00002657,-0.00023646,-0.000
 07853,-0.00025030,-0.00059575,-0.00024922,0.10624692,0.04032067,0.3260
 3837,0.00003406,0.00008268,0.00001445,0.00003208,-0.00030044,-0.000124
 72,0.00001037,0.00008378,0.00009594,-0.00022134,0.00007221,0.00009736,
 0.00014451,-0.00005617,-0.00002186,0.00000605,0.00016526,-0.00002022,-
 0.00004043,-0.00003076,0.00002692,0.00006801,-0.00000795,-0.00004841,-
 0.00000499,0.00000014,-0.00001307,-0.00001981,0.00001736,0.00003083,0.
 00002108,-0.00001382,-0.00001110,-0.00005091,0.00019278,0.00008029,0.0
 0002357,-0.00002238,-0.00000158,-0.00001245,-0.00000914,-0.00001948,-0
 .00000972,0.00004130,-0.00001925,0.00006069,0.00001940,0.00000500,-0.0
 0002182,-0.00000786,-0.00000032,0.00002793,0.00002511,-0.00000376,-0.0
 0002005,0.00041408,-0.00006387,-0.00001208,-0.00008372,0.00005677,-0.0
 0000528,-0.00002283,-0.00001448,0.00109512,-0.00009236,-0.00198604,-0.
 00640704,0.00472908,0.00083769,-0.00027239,0.00009021,-0.00051217,0.00
 059004,0.00053850,0.00355064,-0.02227427,-0.01377021,0.00133148,-0.281
 49152,0.08296654,0.01793634,0.00012451,0.00207917,0.00099037,0.0001407
 0,-0.00019740,0.00012549,-0.00038038,0.00034889,0.00008867,0.00128218,
 -0.00018706,-0.00002579,-0.00007526,0.00013094,-0.00004043,0.30595377,
 -0.00005817,0.00001068,-0.00019446,0.00006331,0.00003779,-0.00001150,-
 0.00002933,-0.00000273,0.00000620,0.00018718,0.00010234,-0.00017774,-0
 .00011720,0.00022915,0.00002576,0.00004711,-0.00033858,0.00021107,-0.0
 0004900,-0.00004118,0.00003401,-0.00003461,0.00004716,0.00002773,0.000
 00904,0.00001636,0.00016033,0.00001384,-0.00006436,0.00006690,-0.00001
 762,0.00000805,0.00001138,-0.00010177,0.00019659,-0.00010002,-0.000014
 46,0.00000251,-0.00000265,0.00000961,-0.00001505,0.00003444,0.00000198
 ,-0.00001063,-0.00000138,-0.00001687,-0.00000471,0.00002845,0.00008093
 ,0.00006976,0.00004776,-0.00003478,-0.00000042,0.00000359,0.00006170,-
 0.00017570,-0.00013058,-0.00001012,0.00004744,-0.00006133,0.00000725,0
 .00004412,0.00002322,0.00062350,0.00082012,0.00238477,0.00927464,-0.00
 218890,0.00060543,0.00163922,0.00064005,-0.00079277,0.00128133,0.00008
 023,0.00712474,-0.04000107,-0.00594059,-0.00034082,0.08045331,-0.07012
 006,-0.00780381,0.02342417,-0.01068044,-0.00612767,-0.00014446,-0.0000
 6193,-0.00014944,0.00043917,-0.00044362,0.00002491,0.00024468,0.000012
 05,-0.00011969,0.00045198,0.00015630,-0.00008084,-0.07721837,0.0876034
 1,-0.00002469,0.00010699,-0.00018908,0.00003940,-0.00024737,-0.0002189
 8,-0.00004236,0.00006448,0.00009051,-0.00009365,0.00010163,-0.00002678
 ,0.00000168,-0.00009975,0.00005034,-0.00006111,0.00005049,-0.00014564,
 0.00002581,0.00002839,0.00000192,-0.00001206,-0.00001641,0.00000706,0.
 00001673,-0.00002527,0.00016379,0.00000218,-0.00006071,0.00009647,0.00
 001610,-0.00000842,-0.00001038,0.00011471,0.00007439,-0.00001807,0.000
 03619,-0.00002743,-0.00000367,-0.00001609,-0.00002751,0.00001111,0.000
 00522,0.00003772,-0.00000366,0.00004721,0.00000043,0.00002126,0.000089
 14,0.00004576,0.00003015,0.00002325,0.00001129,0.00002551,0.00004233,-
 0.00004487,0.00009943,-0.00001292,0.00000091,0.00003689,-0.00000156,-0
 .00000828,-0.00000603,-0.00105366,-0.00051663,-0.00489782,-0.02454627,
 0.01251332,0.00174613,0.00168749,0.00033185,0.00039887,0.00063064,-0.0
 0088058,-0.00050762,0.00699269,0.00287261,0.00488643,0.01086487,-0.006
 82772,-0.05529661,0.02839531,-0.01544009,-0.00570227,-0.00018489,0.000
 04215,0.00014364,-0.00101648,0.00109358,0.00009870,-0.00035487,0.00053
 286,0.00125429,-0.00038202,-0.00008956,0.00008466,-0.02265925,0.009508
 52,0.06088738,-0.00006653,0.00001696,0.00007102,-0.00002099,0.00017889
 ,0.00012461,-0.00007004,-0.00010002,-0.00008993,0.00012647,-0.00030078
 ,0.00016882,-0.00008204,0.00006687,-0.00013014,-0.00013265,-0.00003496
 ,0.00011152,0.00001074,-0.00005602,0.00000329,-0.00000904,0.00001386,-
 0.00003227,0.00005513,0.00002893,-0.00014109,0.00001911,0.00002614,-0.
 00005493,-0.00000272,-0.00002561,0.00000226,-0.00014299,-0.00015636,0.
 00000331,-0.00002253,0.00002195,-0.00001724,0.00001217,0.00000868,0.00
 001428,0.00001944,-0.00004031,0.00002293,-0.00004864,-0.00002121,-0.00
 001913,0.00012104,-0.00004824,0.00008235,0.00000010,-0.00006460,0.0000
 2924,0.00028243,0.00003219,0.00012391,-0.00003018,0.00008630,-0.000120
 96,0.00000507,-0.00000511,0.00000709,-0.00040773,0.00025412,-0.0003768
 9,0.00178823,0.00276748,0.00183447,0.00028928,-0.00085724,0.00137553,-
 0.00068199,-0.00003018,-0.00086381,0.00073227,0.00218514,0.00067173,0.
 00130244,-0.00734022,0.00094737,-0.08797863,0.07219550,-0.09329878,0.0
 0033169,0.00007943,0.00005123,0.00014032,-0.00015799,-0.00010401,-0.00
 012707,-0.00013216,-0.00026537,0.00020600,0.00018827,0.00009422,-0.000
 10203,-0.00082878,0.00069340,0.09602872,-0.00014366,-0.00031622,0.0000
 2550,0.00000269,0.00088309,0.00022550,-0.00009005,-0.00024270,-0.00022
 252,0.00023491,-0.00054894,0.00035046,-0.00001258,0.00020782,-0.000271
 12,-0.00007974,0.00002497,0.00011723,-0.00009874,-0.00017376,0.0000537
 0,0.00009072,0.00004900,-0.00010497,0.00012967,0.00005440,0.00015291,0
 .00005723,-0.00005037,-0.00002656,-0.00006366,0.00007763,-0.00005507,-
 0.00002947,-0.00001202,-0.00022367,-0.00003224,0.00003733,-0.00002415,
 0.00001646,0.00002411,0.00000874,0.00003561,-0.00007023,0.00007327,-0.
 00008333,-0.00005480,-0.00002453,0.00016224,-0.00010519,0.00024907,0.0
 0000107,-0.00004400,0.00000181,0.00016512,0.00000705,0.00016943,-0.000
 01358,0.00005906,-0.00010525,0.00000248,-0.00001037,0.00000716,-0.0000
 8069,-0.00025304,0.00043216,0.00119946,-0.00178140,-0.00143025,-0.0002
 5305,-0.00011360,0.00003181,-0.00067418,-0.00078410,-0.00112669,0.0012
 7190,0.00237658,0.00085183,-0.01198597,0.00602442,-0.02782784,0.094284
 51,-0.10804262,0.15832645,-0.00010704,-0.00003747,-0.00011129,0.000057
 99,0.00016903,0.00010345,-0.00011075,-0.00001294,-0.00033671,-0.000049
 47,-0.00022625,0.00001589,-0.00002141,0.00037250,0.00035175,-0.0822972
 6,0.10858002,-0.00003033,-0.00006655,-0.00000790,-0.00000151,0.0001486
 6,0.00001726,0.00001265,-0.00004198,-0.00004995,0.00003201,0.00002561,
 -0.00009343,-0.00003010,-0.00013248,0.00001983,-0.00004586,0.00010313,
 -0.00001928,0.00010520,0.00016825,-0.00004961,-0.00007806,-0.00006580,
 0.00006481,-0.00005188,0.00011595,0.00009726,0.00001688,-0.00006344,0.
 00002201,-0.00001924,0.00003724,-0.00001988,0.00006184,-0.00007991,0.0
 0002334,0.00000568,0.00000301,0.00000397,-0.00000536,0.00000203,-0.000
 00011,0.00000476,-0.00002535,0.00001630,0.00000553,-0.00006970,0.00002
 768,0.00008148,0.00028209,0.00009876,0.00001048,-0.00000776,0.00000870
 ,0.00001411,0.00003508,-0.00009538,0.00001784,-0.00004885,0.00002996,0
 .00000457,-0.00000988,-0.00000968,0.00078377,-0.00060000,0.00067241,0.
 00119705,-0.00449300,-0.00167376,-0.00021838,0.00079421,-0.00100110,-0
 .00037839,-0.00024605,-0.00100890,0.00097069,0.00182514,0.00276191,-0.
 01050864,0.01604967,-0.02578771,-0.11782352,0.12678100,-0.31984956,-0.
 00022436,-0.00004519,0.00003173,-0.00006386,0.00007994,0.00011559,-0.0
 0015527,0.00000479,-0.00055765,-0.00008926,-0.00043508,0.00009337,0.00
 039758,0.00015508,0.00105256,0.12072738,-0.13750653,0.33853509,-0.0000
 0520,0.00008315,-0.00003670,0.00024763,-0.00038723,0.00012497,-0.00014
 172,0.00005322,0.00004474,-0.00003636,-0.00042072,0.00047499,0.0000514
 0,0.00020961,-0.00021101,0.00004351,0.00010958,0.00005171,-0.00014067,
 -0.00022414,0.00004358,0.00014745,0.00007475,-0.00012439,0.00051799,0.
 00047241,0.00011883,-0.00019065,-0.00003333,0.00003597,-0.00036740,0.0
 0015088,-0.00024239,0.00003642,-0.00008135,0.00013759,-0.00003090,0.00
 002194,-0.00004496,0.00000826,-0.00001717,0.00001665,-0.00000134,0.000
 01270,-0.00003250,-0.00001807,0.00010289,-0.00007730,-0.00043532,-0.00
 031284,-0.00012348,0.00000680,0.00000938,-0.00001824,-0.00007114,0.000
 02434,0.00000961,-0.00000964,-0.00002332,0.00000737,-0.00000526,-0.000
 00910,0.00000195,0.00044242,0.00024998,-0.00057725,0.00030331,0.000132
 16,-0.00045307,-0.00014499,-0.00008218,-0.00016420,-0.00029021,-0.0002
 8617,-0.00064800,0.00160273,-0.00013798,-0.00059277,-0.00423949,-0.002
 98236,0.00101592,-0.40312179,0.11425504,0.05209489,-0.00076171,0.00024
 668,-0.00089112,-0.00015534,-0.00032884,-0.00007906,-0.00004497,0.0000
 9066,-0.00000770,-0.00001020,-0.00005341,-0.00002695,0.00180712,0.0003
 6265,0.00073755,-0.01154484,-0.00148521,0.00527452,0.41655219,0.000642
 54,-0.00078009,0.00158730,-0.00043738,0.00002396,0.00052717,0.00026789
 ,0.00003932,-0.00009443,-0.00047651,-0.00070213,0.00038520,0.00051328,
 0.00037960,-0.00041369,-0.00017518,0.00053858,0.00012913,-0.00031350,-
 0.00047341,0.00015297,0.00037040,0.00011936,-0.00033299,0.00056304,-0.
 00102828,-0.00185465,-0.00016359,0.00054944,-0.00053574,-0.00000079,0.
 00009552,-0.00014120,-0.00017415,-0.00077286,0.00049837,-0.00003327,0.
 00000743,0.00001652,0.00000633,0.00010612,-0.00015672,-0.00003110,0.00
 004593,-0.00002391,-0.00002994,0.00008004,-0.00010243,-0.00059840,0.00
 012837,-0.00017320,0.00005200,-0.00005771,-0.00000349,0.00009782,0.000
 04505,-0.00013359,-0.00002044,-0.00008236,0.00003892,-0.00001540,-0.00
 006208,-0.00001782,0.00029016,0.00090645,0.00058673,-0.00092209,0.0000
 9992,0.00024090,0.00063932,0.00023823,0.00059283,-0.00122578,-0.000301
 47,-0.00183861,0.00171823,0.00456580,0.00420651,0.02583291,-0.01415073
 ,-0.01097258,0.06910988,-0.03603202,-0.01137632,0.00006090,0.00040346,
 0.00013718,-0.00019261,-0.00034064,-0.00006655,0.00007050,-0.00009432,
 0.00015356,-0.00001923,-0.00019689,0.00005512,0.00004446,-0.00040769,-
 0.00344849,0.01434636,-0.00606700,-0.00267335,-0.10979667,0.05317711,0
 .00011201,-0.00055590,0.00054988,-0.00022379,0.00130476,0.00031012,0.0
 0010307,-0.00030056,-0.00034961,0.00036830,-0.00019301,-0.00013761,-0.
 00009738,-0.00004663,-0.00002848,0.00006783,-0.00005631,0.00008448,0.0
 0011877,0.00017419,-0.00008413,-0.00011096,-0.00005273,0.00009627,0.00
 000692,-0.00035709,-0.00000312,0.00001611,0.00001519,-0.00022556,-0.00
 013032,0.00014681,-0.00005286,0.00010038,0.00031314,-0.00065184,-0.000
 01828,0.00003622,0.00002578,0.00000811,0.00005493,-0.00002281,0.000034
 04,-0.00012569,0.00009216,-0.00013110,-0.00010759,-0.00000200,0.000004
 89,0.00015055,0.00012018,-0.00002296,-0.00000570,-0.00002372,-0.000008
 94,-0.00005149,-0.00000853,0.00000331,0.00002661,-0.00006492,0.0000072
 1,0.00000915,0.00000186,0.00032840,0.00056101,-0.00043160,0.00063734,-
 0.00049052,0.00039234,-0.00015905,0.00016527,-0.00004087,0.00053086,0.
 00009445,0.00061170,-0.00217075,0.00067331,0.00087279,0.03524330,-0.00
 566244,-0.00368386,0.05471720,-0.02429194,-0.07170279,-0.00145283,-0.0
 0009076,-0.00067133,-0.00022851,-0.00002070,0.00052619,-0.00011326,0.0
 0013337,0.00034135,0.00002522,0.00003927,-0.00003350,-0.00008000,-0.00
 438957,-0.00416049,-0.03164539,0.00784905,0.00653136,-0.05583974,0.025
 05136,0.07182318\\0.00000007,-0.00000105,0.00000118,0.00000100,0.00000
 919,0.00000355,0.00000008,0.00000152,-0.00000052,0.00000080,0.00000263
 ,0.00000153,0.00000139,-0.00000145,-0.00000027,-0.00000087,-0.00000041
 ,0.00000011,0.00000047,-0.00000047,-0.00000057,0.00000055,-0.00000058,
 -0.00000040,-0.00000001,0.,0.00000057,0.00000063,-0.00000027,0.,0.0000
 0002,-0.00000042,-0.00000018,-0.00000108,-0.00000838,-0.00000242,0.000
 00002,0.00000042,-0.00000025,0.00000037,0.00000025,-0.00000049,0.00000
 062,-0.00000027,-0.00000051,0.00000123,-0.00000046,-0.00000101,0.00000
 075,0.00000004,0.00000118,0.00000008,-0.00000094,-0.00000013,-0.000000
 43,-0.00000022,-0.00000014,-0.00000055,-0.00000052,-0.00000069,0.00000
 084,-0.00000043,-0.00000018,-0.00000338,-0.00000560,-0.00000359,-0.000
 00025,-0.00000076,-0.00000011,-0.00000054,-0.00000062,0.00000064,-0.00
 000079,0.00000026,-0.00000018,-0.00000165,0.00000102,0.00000072,-0.000
 00032,-0.00000010,-0.00000069,0.00000069,0.00000083,-0.00000030,0.0000
 0062,0.00000286,0.00000374,0.00000291,0.00000358,0.00000056,-0.0000007
 6,0.00000106,-0.00000067,-0.00000061,-0.00000006,-0.00000004,-0.000000
 90,-0.00000119,-0.00000078,-0.00000049,0.00000017,0.00000015,-0.000000
 49,0.00000037,0.00000018\\\@
 The archive entry for this job was punched.


 ORIGINALITY CONSISTS NOT IN SAYING WHAT NO ONE HAS EVER SAID BEFORE, 
 BUT IN SAYING WHAT YOU THINK YOUR SELF.

                                    -- JAMES F. STEPHEN
 Job cpu time:       0 days  3 hours 10 minutes 39.7 seconds.
 Elapsed time:       0 days  0 hours  7 minutes 59.7 seconds.
 File lengths (MBytes):  RWF=   1664 Int=      0 D2E=      0 Chk=     32 Scr=     32
 Normal termination of Gaussian 16 at Mon Sep 11 11:44:15 2023.
