      -----------------------------------------------------------      
     |                   =====================                   |     
     |                           x T B                           |     
     |                   =====================                   |     
     |                         S. Grimme                         |     
     |          Mulliken Center for Theoretical Chemistry        |     
     |                    University of Bonn                     |     
      -----------------------------------------------------------      

   * xtb version 6.4.1 (afa7bdf) compiled by 'ehlert@majestix' on 2021-06-10

   xtb is free software: you can redistribute it and/or modify it under
   the terms of the GNU Lesser General Public License as published by
   the Free Software Foundation, either version 3 of the License, or
   (at your option) any later version.
   
   xtb is distributed in the hope that it will be useful,
   but WITHOUT ANY WARRANTY; without even the implied warranty of
   MERCHANTABILITY or FITNESS FOR A PARTICULAR PURPOSE.  See the
   GNU Lesser General Public License for more details.
   
   Cite this work as:
   * C. Bannwarth, E. Caldeweyher, S. Ehlert, A. Hansen, P. Pracht,
     J. Seibert, S. Spicher, S. Grimme, WIREs Comput. Mol. Sci., 2020, 11,
     e01493. DOI: 10.1002/wcms.1493
   
   for GFN2-xTB:
   * C. Bannwarth, S. Ehlert and S. Grimme., J. Chem. Theory Comput., 2019,
     15, 1652-1671. DOI: 10.1021/acs.jctc.8b01176
   for GFN1-xTB:
   * S. Grimme, C. Bannwarth, P. Shushkov, J. Chem. Theory Comput., 2017,
     13, 1989-2009. DOI: 10.1021/acs.jctc.7b00118
   for GFN0-xTB:
   * P. Pracht, E. Caldeweyher, S. Ehlert, S. Grimme, ChemRxiv, 2019, preprint.
     DOI: 10.26434/chemrxiv.8326202.v1
   for GFN-FF:
   * S. Spicher and S. Grimme, Angew. Chem. Int. Ed., 2020, 59, 15665-15673.
     DOI: 10.1002/anie.202004239
   
   for DFT-D4:
   * E. Caldeweyher, C. Bannwarth and S. Grimme, J. Chem. Phys., 2017,
     147, 034112. DOI: 10.1063/1.4993215
   * E. Caldeweyher, S. Ehlert, A. Hansen, H. Neugebauer, S. Spicher,
     C. Bannwarth and S. Grimme, J. Chem. Phys., 2019, 150, 154122.
     DOI: 10.1063/1.5090222
   * E. Caldeweyher, J.-M. Mewes, S. Ehlert and S. Grimme, Phys. Chem. Chem. Phys.
     2020, 22, 8499-8512. DOI: 10.1039/D0CP00502A
   
   for sTDA-xTB:
   * S. Grimme and C. Bannwarth, J. Chem. Phys., 2016, 145, 054103.
     DOI: 10.1063/1.4959605
   
   in the mass-spec context:
   * V. Asgeirsson, C. Bauer and S. Grimme, Chem. Sci., 2017, 8, 4879.
     DOI: 10.1039/c7sc00601b
   * J. Koopman and S. Grimme, ACS Omega 2019, 4, 12, 15120-15133.
     DOI: 10.1021/acsomega.9b02011
   
   for metadynamics refer to:
   * S. Grimme, J. Chem. Theory Comput., 2019, 155, 2847-2862
     DOI: 10.1021/acs.jctc.9b00143
   
   for SPH calculations refer to:
   * S. Spicher and S. Grimme, J. Chem. Theory Comput., 2021, 17, 1701-1714
     DOI: 10.1021/acs.jctc.0c01306
   
   with help from (in alphabetical order)
   P. Atkinson, C. Bannwarth, F. Bohle, G. Brandenburg, E. Caldeweyher
   M. Checinski, S. Dohm, S. Ehlert, S. Ehrlich, I. Gerasimov, J. Koopman
   C. Lavigne, S. Lehtola, F. März, M. Müller, F. Musil, H. Neugebauer
   J. Pisarek, C. Plett, P. Pracht, J. Seibert, P. Shushkov, S. Spicher
   M. Stahn, M. Steiner, T. Strunk, J. Stückrath, T. Rose, and J. Unsleber
   
 * started run on 2023/09/13 at 16:13:02.315     

           -------------------------------------------------
          |                Calculation Setup                |
           -------------------------------------------------

          program call               : xtb molecule_209529.xyz --ohess --cycles 1000 --chrg 0 -P 16 --uhf 0
          hostname                   : dale
          coordinate file            : molecule_209529.xyz
          omp threads                :                    16
          number of atoms            :                    20
          number of electrons        :                    58
          charge                     :                     0
          spin                       :                   0.0
          first test random number   :      0.05261384298661

   ID    Z sym.   atoms
    1    6 C      1, 3, 5-7, 9
    2    8 O      2, 4, 8, 10
    3    1 H      11-20

           -------------------------------------------------
          |                 G F N 2 - x T B                 |
           -------------------------------------------------

        Reference                      10.1021/acs.jctc.8b01176
      * Hamiltonian:
        H0-scaling (s, p, d)           1.850000    2.230000    2.230000
        zeta-weighting                 0.500000
      * Dispersion:
        s8                             2.700000
        a1                             0.520000
        a2                             5.000000
        s9                             5.000000
      * Repulsion:
        kExp                           1.500000    1.000000
        rExp                           1.000000
      * Coulomb:
        alpha                          2.000000
        third order                    shell-resolved
        anisotropic                    true
        a3                             3.000000
        a5                             4.000000
        cn-shift                       1.200000
        cn-exp                         4.000000
        max-rad                        5.000000


          ...................................................
          :                      SETUP                      :
          :.................................................:
          :  # basis functions                  50          :
          :  # atomic orbitals                  50          :
          :  # shells                           30          :
          :  # electrons                        58          :
          :  max. iterations                   250          :
          :  Hamiltonian                  GFN2-xTB          :
          :  restarted?                      false          :
          :  GBSA solvation                  false          :
          :  PC potential                    false          :
          :  electronic temp.          300.0000000     K    :
          :  accuracy                    1.0000000          :
          :  -> integral cutoff          0.2500000E+02      :
          :  -> integral neglect         0.1000000E-07      :
          :  -> SCF convergence          0.1000000E-05 Eh   :
          :  -> wf. convergence          0.1000000E-03 e    :
          :  Broyden damping             0.4000000          :
          ...................................................

 iter      E             dE          RMSdq      gap      omega  full diag
   1    -34.4519757 -0.344520E+02  0.488E+00    5.23       0.0  T
   2    -34.5135203 -0.615446E-01  0.254E+00    4.33       1.0  T
   3    -34.5139740 -0.453748E-03  0.123E+00    4.54       1.0  T
   4    -34.5178329 -0.385886E-02  0.170E-01    4.23       1.0  T
   5    -34.5180999 -0.267052E-03  0.694E-02    4.31       1.0  T
   6    -34.5181055 -0.556398E-05  0.224E-02    4.32       1.0  T
   7    -34.5181065 -0.971834E-06  0.771E-03    4.32       2.9  T
   8    -34.5181066 -0.157556E-06  0.231E-03    4.32       9.7  T
   9    -34.5181066 -0.860640E-08  0.930E-04    4.32      24.1  T
  10    -34.5181066 -0.147449E-08  0.246E-04    4.32      90.9  T

   *** convergence criteria satisfied after 10 iterations ***

         #    Occupation            Energy/Eh            Energy/eV
      -------------------------------------------------------------
         1        2.0000           -0.7578004             -20.6208
       ...           ...                  ...                  ...
        23        2.0000           -0.4891801             -13.3113
        24        2.0000           -0.4860570             -13.2263
        25        2.0000           -0.4690092             -12.7624
        26        2.0000           -0.4611319             -12.5480
        27        2.0000           -0.4542130             -12.3598
        28        2.0000           -0.4156008             -11.3091
        29        2.0000           -0.4023628             -10.9488 (HOMO)
        30                         -0.2435799              -6.6281 (LUMO)
        31                         -0.0207304              -0.5641
        32                         -0.0082455              -0.2244
        33                          0.0239290               0.6511
        34                          0.0713924               1.9427
       ...                                ...                  ...
        50                          0.6579587              17.9040
      -------------------------------------------------------------
                  HL-Gap            0.1587829 Eh            4.3207 eV
             Fermi-level           -0.3229714 Eh           -8.7885 eV

 SCC (total)                   0 d,  0 h,  0 min,  0.011 sec
 SCC setup                      ...        0 min,  0.000 sec (  2.101%)
 Dispersion                     ...        0 min,  0.000 sec (  2.005%)
 classical contributions        ...        0 min,  0.000 sec (  0.226%)
 integral evaluation            ...        0 min,  0.001 sec (  6.470%)
 iterations                     ...        0 min,  0.009 sec ( 77.961%)
 molecular gradient             ...        0 min,  0.001 sec ( 10.094%)
 printout                       ...        0 min,  0.000 sec (  0.865%)

         :::::::::::::::::::::::::::::::::::::::::::::::::::::
         ::                     SUMMARY                     ::
         :::::::::::::::::::::::::::::::::::::::::::::::::::::
         :: total energy             -34.219243092744 Eh    ::
         :: gradient norm              0.022295412942 Eh/a0 ::
         :: HOMO-LUMO gap              4.320703225690 eV    ::
         ::.................................................::
         :: SCC energy               -34.518106639129 Eh    ::
         :: -> isotropic ES            0.080565770673 Eh    ::
         :: -> anisotropic ES          0.001457718084 Eh    ::
         :: -> anisotropic XC         -0.001290431648 Eh    ::
         :: -> dispersion             -0.014590749729 Eh    ::
         :: repulsion energy           0.298781901868 Eh    ::
         :: add. restraining           0.000000000000 Eh    ::
         :: total charge               0.000000000000 e     ::
         :::::::::::::::::::::::::::::::::::::::::::::::::::::

      ----------------------------------------------------------- 
     |                   =====================                   |
     |                        A N C O P T                        |
     |                   =====================                   |
     |               Approximate Normal Coordinate               |
     |                Rational Function Optimizer                |
      ----------------------------------------------------------- 

          ...................................................
          :                      SETUP                      :
          :.................................................:
          :   optimization level            normal          :
          :   max. optcycles                  1000          :
          :   ANC micro-cycles                  20          :
          :   degrees of freedom                54          :
          :.................................................:
          :   RF solver                   davidson          :
          :   write xtbopt.log                true          :
          :   linear?                        false          :
          :   energy convergence         0.5000000E-05 Eh   :
          :   grad. convergence          0.1000000E-02 Eh/α :
          :   maximium RF displ.         1.0000000          :
          :   Hlow (freq-cutoff)         0.1000000E-01      :
          :   Hmax (freq-cutoff)         5.0000000          :
          :   S6 in model hess.         20.0000000          :
          ...................................................

generating ANC from model Hessian ...
Using Lindh-Hessian (1995)
 Shifting diagonal of input Hessian by   8.157656693230701E-003
 Lowest  eigenvalues of input Hessian
    0.000000    0.000000    0.000000    0.000000    0.000000    0.000000
    0.010000    0.012639    0.012781    0.017760    0.019498    0.021403
    0.025891    0.029856    0.032882    0.034248    0.046940    0.054301
 Highest eigenvalues
    1.322346    1.393907    1.505282    1.579719    1.777694    2.379464
 

........................................................................
.............................. CYCLE    1 ..............................
........................................................................
   1    -34.5181066 -0.345181E+02  0.796E-05    4.32       0.0  T
   2    -34.5181066 -0.274625E-10  0.434E-05    4.32     515.1  T
   3    -34.5181066 -0.258638E-11  0.246E-05    4.32     908.9  T
     SCC iter.                  ...        0 min,  0.002 sec
     gradient                   ...        0 min,  0.001 sec
 * total energy  :   -34.2192431 Eh     change       -0.1615561E-09 Eh
   gradient norm :     0.0222944 Eh/α   predicted     0.0000000E+00 (-100.00%)
   displ. norm   :     0.0774744 α      lambda       -0.7423729E-03
   maximum displ.:     0.0436371 α      in ANC's #2, #11, #3, ...

........................................................................
.............................. CYCLE    2 ..............................
........................................................................
   1    -34.5155182 -0.345155E+02  0.620E-02    4.29       0.0  T
   2    -34.5155232 -0.497626E-05  0.380E-02    4.30       1.0  T
   3    -34.5155230  0.161899E-06  0.924E-03    4.30       2.4  T
   4    -34.5155235 -0.545245E-06  0.258E-03    4.30       8.7  T
   5    -34.5155236 -0.500509E-07  0.945E-04    4.30      23.7  T
   6    -34.5155236 -0.112226E-08  0.355E-04    4.30      63.0  T
     SCC iter.                  ...        0 min,  0.003 sec
     gradient                   ...        0 min,  0.001 sec
 * total energy  :   -34.2197293 Eh     change       -0.4862219E-03 Eh
   gradient norm :     0.0092093 Eh/α   predicted    -0.3734161E-03 ( -23.20%)
   displ. norm   :     0.0758256 α      lambda       -0.1902076E-03
   maximum displ.:     0.0553970 α      in ANC's #2, #8, #3, ...

........................................................................
.............................. CYCLE    3 ..............................
........................................................................
   1    -34.5142313 -0.345142E+02  0.395E-02    4.28       0.0  T
   2    -34.5142337 -0.244674E-05  0.238E-02    4.28       1.0  T
   3    -34.5142337  0.252852E-07  0.701E-03    4.28       3.2  T
   4    -34.5142339 -0.215984E-06  0.154E-03    4.28      14.5  T
   5    -34.5142339 -0.157412E-07  0.649E-04    4.28      34.5  T
   6    -34.5142339 -0.742986E-09  0.268E-04    4.28      83.5  T
     SCC iter.                  ...        0 min,  0.003 sec
     gradient                   ...        0 min,  0.001 sec
 * total energy  :   -34.2198478 Eh     change       -0.1184835E-03 Eh
   gradient norm :     0.0026470 Eh/α   predicted    -0.9566817E-04 ( -19.26%)
   displ. norm   :     0.0618157 α      lambda       -0.4867059E-04
   maximum displ.:     0.0465208 α      in ANC's #2, #8, #3, ...

........................................................................
.............................. CYCLE    4 ..............................
........................................................................
   1    -34.5141358 -0.345141E+02  0.307E-02    4.28       0.0  T
   2    -34.5141362 -0.416864E-06  0.184E-02    4.28       1.2  T
   3    -34.5141362  0.467643E-08  0.268E-03    4.28       8.3  T
   4    -34.5141363 -0.576730E-07  0.736E-04    4.28      30.4  T
   5    -34.5141363 -0.170517E-08  0.372E-04    4.28      60.1  T
     SCC iter.                  ...        0 min,  0.003 sec
     gradient                   ...        0 min,  0.001 sec
 * total energy  :   -34.2198839 Eh     change       -0.3608637E-04 Eh
   gradient norm :     0.0021724 Eh/α   predicted    -0.2442882E-04 ( -32.30%)
   displ. norm   :     0.0890500 α      lambda       -0.4561809E-04
   maximum displ.:     0.0635622 α      in ANC's #2, #8, #3, ...

........................................................................
.............................. CYCLE    5 ..............................
........................................................................
   1    -34.5143394 -0.345143E+02  0.453E-02    4.28       0.0  T
   2    -34.5143398 -0.318315E-06  0.272E-02    4.28       1.0  T
   3    -34.5143398 -0.440714E-07  0.199E-03    4.27      11.2  T
   4    -34.5143398 -0.286749E-07  0.870E-04    4.28      25.7  T
   5    -34.5143398 -0.778755E-09  0.354E-04    4.28      63.1  T
     SCC iter.                  ...        0 min,  0.003 sec
     gradient                   ...        0 min,  0.001 sec
 * total energy  :   -34.2199165 Eh     change       -0.3260145E-04 Eh
   gradient norm :     0.0028312 Eh/α   predicted    -0.2303618E-04 ( -29.34%)
   displ. norm   :     0.0839645 α      lambda       -0.3025013E-04
   maximum displ.:     0.0543000 α      in ANC's #2, #8, #3, ...

........................................................................
.............................. CYCLE    6 ..............................
........................................................................
   1    -34.5145638 -0.345146E+02  0.439E-02    4.28       0.0  T
   2    -34.5145641 -0.317473E-06  0.265E-02    4.28       1.0  T
   3    -34.5145641 -0.431321E-08  0.254E-03    4.27       8.8  T
   4    -34.5145642 -0.659843E-07  0.900E-04    4.28      24.8  T
   5    -34.5145642 -0.240495E-08  0.463E-04    4.28      48.3  T
     SCC iter.                  ...        0 min,  0.003 sec
     gradient                   ...        0 min,  0.001 sec
 * total energy  :   -34.2199382 Eh     change       -0.2173566E-04 Eh
   gradient norm :     0.0023301 Eh/α   predicted    -0.1524447E-04 ( -29.86%)
   displ. norm   :     0.0686134 α      lambda       -0.1833934E-04
   maximum displ.:     0.0381823 α      in ANC's #8, #2, #3, ...

........................................................................
.............................. CYCLE    7 ..............................
........................................................................
   1    -34.5146984 -0.345147E+02  0.372E-02    4.28       0.0  T
   2    -34.5146988 -0.360408E-06  0.225E-02    4.28       1.0  T
   3    -34.5146987  0.318604E-07  0.305E-03    4.28       7.3  T
   4    -34.5146988 -0.975564E-07  0.828E-04    4.28      27.0  T
   5    -34.5146988 -0.251435E-08  0.447E-04    4.28      50.0  T
     SCC iter.                  ...        0 min,  0.003 sec
     gradient                   ...        0 min,  0.001 sec
 * total energy  :   -34.2199502 Eh     change       -0.1198719E-04 Eh
   gradient norm :     0.0011258 Eh/α   predicted    -0.9213334E-05 ( -23.14%)
   displ. norm   :     0.0410187 α      lambda       -0.5691146E-05
   maximum displ.:     0.0273269 α      in ANC's #8, #3, #5, ...

........................................................................
.............................. CYCLE    8 ..............................
........................................................................
   1    -34.5147750 -0.345148E+02  0.245E-02    4.28       0.0  T
   2    -34.5147752 -0.187864E-06  0.149E-02    4.28       1.5  T
   3    -34.5147751  0.134339E-07  0.223E-03    4.28      10.0  T
   4    -34.5147752 -0.490057E-07  0.595E-04    4.28      37.6  T
   5    -34.5147752 -0.115404E-08  0.328E-04    4.28      68.2  T
     SCC iter.                  ...        0 min,  0.003 sec
     gradient                   ...        0 min,  0.001 sec
 * total energy  :   -34.2199551 Eh     change       -0.4913698E-05 Eh
   gradient norm :     0.0007606 Eh/α   predicted    -0.2847942E-05 ( -42.04%)
   displ. norm   :     0.0225620 α      lambda       -0.2770997E-05
   maximum displ.:     0.0137937 α      in ANC's #2, #8, #1, ...

   *** GEOMETRY OPTIMIZATION CONVERGED AFTER 8 ITERATIONS ***

------------------------------------------------------------------------
 total energy gain   :        -0.0007120 Eh       -0.4468 kcal/mol
 total RMSD          :         0.1015592 a0        0.0537 Å
 total power (kW/mol):        -0.2336793 (step)  -39.0792 (real)
------------------------------------------------------------------------

 ANCopt (total)                0 d,  0 h,  0 min,  0.048 sec
 optimizer setup                ...        0 min,  0.000 sec (  0.194%)
 model hessian                  ...        0 min,  0.012 sec ( 25.197%)
 ANC generation                 ...        0 min,  0.000 sec (  0.794%)
 coordinate transformation      ...        0 min,  0.000 sec (  0.102%)
 single point calculation       ...        0 min,  0.034 sec ( 70.751%)
 optimization log               ...        0 min,  0.001 sec (  1.436%)
 hessian update                 ...        0 min,  0.000 sec (  0.119%)
 rational function              ...        0 min,  0.000 sec (  0.819%)

================
 final structure:
================
20
 xtb: 6.4.1 (afa7bdf)
C         2.41440794528207   -0.94945874282767   -1.60677469366711
O         1.54787440811952   -0.72605908296506   -0.49875358829226
C         0.26067537711179   -0.51876612132425   -0.79733424864570
O        -0.17981662056942   -0.51457832435989   -1.91170570402638
C        -0.55915887361709   -0.27662701805116    0.47860846158835
C        -0.43052330651123   -1.45674239474223    1.43082362682512
C        -0.16933064367339    1.08620527661864    1.08519860232491
O        -0.96727031079730    2.00203849175774    0.37281897011811
C        -2.06310663499503    1.29140484162979   -0.16584843888194
O        -1.91841607447866   -0.06288446334871    0.15139117339890
H         3.40065221093612   -1.12803393449705   -1.18690933989240
H         2.42608120180020   -0.07481255664025   -2.25949057907610
H         2.07688760972502   -1.81376506011614   -2.18130645073655
H        -1.03366288482799   -1.27623226587791    2.31680427229746
H         0.60993421787366   -1.58828145776413    1.71286705894552
H        -0.79288752010867   -2.35734349843255    0.94225167119880
H        -0.41934312209152    1.10503400581613    2.15521763619191
H         0.88052484090717    1.34517072031161    0.94595757427000
H        -2.07491584507115    1.45044149426171   -1.25497410859932
H        -3.00860597501409    1.64379009055138    0.27095810465869
 
 Bond Distances (Angstroems)
 ---------------------------
C1-O2=1.4243         C1-H11=1.0867        C1-H12=1.0914        C1-H13=1.0913        O2-C1=1.4243         O2-C3=1.3375         
C3-O2=1.3375         C3-O4=1.1983         C3-C5=1.5358         O4-C3=1.1983         C5-C3=1.5358         C5-C6=1.5218         
C5-C7=1.5418         C5-O10=1.4143        C6-C5=1.5218         C6-H14=1.0869        C6-H15=1.0860        C6-H16=1.0868        
C7-C5=1.5418         C7-O8=1.4082         C7-H17=1.0990        C7-H18=1.0903        O8-C7=1.4082         O8-C9=1.4128         
C9-O8=1.4128         C9-O10=1.3985        C9-H19=1.1007        C9-H20=1.0995        O10-C5=1.4143        O10-C9=1.3985        
H11-C1=1.0867        H12-C1=1.0914        H13-C1=1.0913        H14-C6=1.0869        H15-C6=1.0860        H16-C6=1.0868        
H17-C7=1.0990        H18-C7=1.0903        H19-C9=1.1007        H20-C9=1.0995        
 C  H  Rav=1.0919 sigma=0.0055  Rmin=1.0860  Rmax=1.1007    10
 C  C  Rav=1.5332 sigma=0.0084  Rmin=1.5218  Rmax=1.5418     3
 O  C  Rav=1.3705 sigma=0.0752  Rmin=1.1983  Rmax=1.4243     7
 
 selected bond angles (degree)
 --------------------
H11-C1-O2=106.10               H12-C1-O2=110.25               H12-C1-H11=110.67              H13-C1-O2=110.22               
H13-C1-H11=110.73              H13-C1-H12=108.85              C3-O2-C1=115.86                O4-C3-O2=124.19                
C5-C3-O2=110.65                C5-C3-O4=125.16                C6-C5-C3=110.64                C7-C5-C3=109.34                
C7-C5-C6=114.70                O10-C5-C3=110.16               O10-C5-C6=110.07               O10-C5-C7=101.56               
H14-C6-C5=109.53               H15-C6-C5=109.72               H15-C6-H14=109.88              H16-C6-C5=109.46               
H16-C6-H14=108.61              H16-C6-H15=109.62              O8-C7-C5=103.45                H17-C7-C5=109.92               
H17-C7-O8=110.64               H18-C7-C5=113.78               H18-C7-O8=109.06               H18-C7-H17=109.84              
C9-O8-C7=107.77                O10-C9-O8=108.69               H19-C9-O8=108.23               H19-C9-O10=111.44              
H20-C9-O8=110.75               H20-C9-O10=108.01              H20-C9-H19=109.73              C9-O10-C5=107.35               
 
 selected dihedral angles (degree)
 ---------------------------------
C3-O2-C1-H11=181.73           C3-O2-C1-H12= 61.85           C3-O2-C1-H13=301.66           O4-C3-O2-C1=  0.11            
C5-C3-O2-C1=180.63            C6-C5-C3-O2=302.11            C6-C5-C3-O4=122.65            C7-C5-C3-O2= 69.38            
C7-C5-C3-O4=249.91            O10-C5-C3-O2=180.18           O10-C5-C3-O4=  0.71           H14-C6-C5-C3=181.20           
H14-C6-C5-C7= 56.95           H14-C6-C5-O10=303.19          H15-C6-C5-C3= 60.51           H15-C6-C5-C7=296.26           
H15-C6-C5-O10=182.49          H16-C6-C5-C3=300.18           H16-C6-C5-C7=175.93           H16-C6-C5-O10= 62.16          
O8-C7-C5-C3= 84.23            O8-C7-C5-C6=209.16            O8-C7-C5-O10=327.83           H17-C7-C5-C3=202.40           
H17-C7-C5-C6=327.34           H17-C7-C5-O10= 86.00          H18-C7-C5-C3=326.05           H18-C7-C5-C6= 90.98           
H18-C7-C5-O10=209.65          C9-O8-C7-C5= 21.50            C9-O8-C7-H17=263.83           C9-O8-C7-H18=142.91           
O10-C9-O8-C7=357.23           H19-C9-O8-C7=236.05           H20-C9-O8-C7=115.73           C9-O10-C5-C3=275.34           
C9-O10-C5-C6=153.07           C9-O10-C5-C7= 31.14           C5-O10-C9-O8=340.67           C5-O10-C9-H19= 99.85          
C5-O10-C9-H20=220.45          
           -------------------------------------------------
          |                Final Singlepoint                |
           -------------------------------------------------

          ...................................................
          :                      SETUP                      :
          :.................................................:
          :  # basis functions                  50          :
          :  # atomic orbitals                  50          :
          :  # shells                           30          :
          :  # electrons                        58          :
          :  max. iterations                   250          :
          :  Hamiltonian                  GFN2-xTB          :
          :  restarted?                      false          :
          :  GBSA solvation                  false          :
          :  PC potential                    false          :
          :  electronic temp.          300.0000000     K    :
          :  accuracy                    1.0000000          :
          :  -> integral cutoff          0.2500000E+02      :
          :  -> integral neglect         0.1000000E-07      :
          :  -> SCF convergence          0.1000000E-05 Eh   :
          :  -> wf. convergence          0.1000000E-03 e    :
          :  Broyden damping             0.4000000          :
          ...................................................

 iter      E             dE          RMSdq      gap      omega  full diag
   1    -34.5147752 -0.345148E+02  0.887E-05    4.28       0.0  T
   2    -34.5147752 -0.142606E-10  0.540E-05    4.28     414.4  T
   3    -34.5147752 -0.888178E-12  0.219E-05    4.28    1023.1  T

   *** convergence criteria satisfied after 3 iterations ***

         #    Occupation            Energy/Eh            Energy/eV
      -------------------------------------------------------------
         1        2.0000           -0.7593751             -20.6636
       ...           ...                  ...                  ...
        23        2.0000           -0.4898743             -13.3302
        24        2.0000           -0.4868798             -13.2487
        25        2.0000           -0.4681070             -12.7378
        26        2.0000           -0.4619186             -12.5694
        27        2.0000           -0.4551066             -12.3841
        28        2.0000           -0.4150058             -11.2929
        29        2.0000           -0.4018615             -10.9352 (HOMO)
        30                         -0.2446188              -6.6564 (LUMO)
        31                         -0.0204083              -0.5553
        32                         -0.0046360              -0.1262
        33                          0.0222820               0.6063
        34                          0.0620300               1.6879
       ...                                ...                  ...
        50                          0.6520759              17.7439
      -------------------------------------------------------------
                  HL-Gap            0.1572427 Eh            4.2788 eV
             Fermi-level           -0.3232401 Eh           -8.7958 eV

 SCC (total)                   0 d,  0 h,  0 min,  0.003 sec
 SCC setup                      ...        0 min,  0.000 sec (  1.377%)
 Dispersion                     ...        0 min,  0.000 sec (  1.313%)
 classical contributions        ...        0 min,  0.000 sec (  0.207%)
 integral evaluation            ...        0 min,  0.000 sec (  9.641%)
 iterations                     ...        0 min,  0.002 sec ( 55.256%)
 molecular gradient             ...        0 min,  0.001 sec ( 29.658%)
 printout                       ...        0 min,  0.000 sec (  2.062%)

         :::::::::::::::::::::::::::::::::::::::::::::::::::::
         ::                     SUMMARY                     ::
         :::::::::::::::::::::::::::::::::::::::::::::::::::::
         :: total energy             -34.219955122846 Eh    ::
         :: gradient norm              0.000760967629 Eh/a0 ::
         :: HOMO-LUMO gap              4.278791848807 eV    ::
         ::.................................................::
         :: SCC energy               -34.514775197903 Eh    ::
         :: -> isotropic ES            0.079824573598 Eh    ::
         :: -> anisotropic ES          0.001689617879 Eh    ::
         :: -> anisotropic XC         -0.001087455091 Eh    ::
         :: -> dispersion             -0.014551751840 Eh    ::
         :: repulsion energy           0.294738353411 Eh    ::
         :: add. restraining           0.000000000000 Eh    ::
         :: total charge              -0.000000000000 e     ::
         :::::::::::::::::::::::::::::::::::::::::::::::::::::

           ------------------------------------------------- 
          |                Numerical Hessian                |
           ------------------------------------------------- 
step length          :   0.00500
SCC accuracy         :   0.30000
Hessian scale factor :   1.00000
frozen atoms in %    :   0.00000    0
RMS gradient         :   0.00076
estimated CPU  time      0.04 min
estimated wall time      0.00 min

writing file <hessian>.

 projected vibrational frequencies (cm⁻¹)
eigval :       -0.00    -0.00    -0.00    -0.00     0.00     0.00
eigval :        7.45    41.71    55.96    94.96   144.29   177.84
eigval :      182.61   255.20   278.79   305.63   340.26   442.66
eigval :      572.16   637.98   719.53   736.83   821.42   915.33
eigval :      932.03   972.32   984.75  1004.48  1056.85  1081.24
eigval :     1099.15  1119.42  1125.60  1139.21  1150.28  1165.06
eigval :     1172.81  1198.39  1218.78  1283.83  1308.51  1383.20
eigval :     1388.34  1438.88  1459.65  1461.03  1471.81  1482.69
eigval :     1490.84  1791.74  2857.82  2881.58  2898.99  2983.46
eigval :     2993.80  2994.48  3043.08  3047.12  3051.08  3057.10
           -------------------------------------------------
          |                Property Printout                |
           -------------------------------------------------

    * Orbital Energies and Occupations

         #    Occupation            Energy/Eh            Energy/eV
      -------------------------------------------------------------
         1        2.0000           -0.7593753             -20.6637
       ...           ...                  ...                  ...
        17        2.0000           -0.5368444             -14.6083
        18        2.0000           -0.5255244             -14.3002
        19        2.0000           -0.5211679             -14.1817
        20        2.0000           -0.5150401             -14.0150
        21        2.0000           -0.5008271             -13.6282
        22        2.0000           -0.4959539             -13.4956
        23        2.0000           -0.4898744             -13.3302
        24        2.0000           -0.4868798             -13.2487
        25        2.0000           -0.4681071             -12.7378
        26        2.0000           -0.4619186             -12.5694
        27        2.0000           -0.4551066             -12.3841
        28        2.0000           -0.4150058             -11.2929
        29        2.0000           -0.4018615             -10.9352 (HOMO)
        30                         -0.2446190              -6.6564 (LUMO)
        31                         -0.0204084              -0.5553
        32                         -0.0046361              -0.1262
        33                          0.0222819               0.6063
        34                          0.0620299               1.6879
        35                          0.0879089               2.3921
        36                          0.0910396               2.4773
        37                          0.1213359               3.3017
        38                          0.1225690               3.3353
        39                          0.1437613               3.9119
        40                          0.1588575               4.3227
       ...                                ...                  ...
        50                          0.6520757              17.7439
      -------------------------------------------------------------
                  HL-Gap            0.1572425 Eh            4.2788 eV
             Fermi-level           -0.3232403 Eh           -8.7958 eV

     #   Z          covCN         q      C6AA      α(0)
     1   6 C        3.657     0.030    20.350     6.475
     2   8 O        1.704    -0.266    18.404     5.792
     3   6 C        2.725     0.344    21.152     7.529
     4   8 O        0.856    -0.377    21.236     6.178
     5   6 C        3.854     0.121    18.572     6.129
     6   6 C        3.755    -0.121    22.874     6.820
     7   6 C        3.748     0.079    19.325     6.270
     8   8 O        1.702    -0.324    19.423     5.950
     9   6 C        3.693     0.219    17.336     5.957
    10   8 O        1.705    -0.311    19.180     5.913
    11   1 H        0.925     0.074     2.042     2.235
    12   1 H        0.924     0.068     2.105     2.269
    13   1 H        0.924     0.069     2.095     2.264
    14   1 H        0.925     0.068     2.105     2.269
    15   1 H        0.925     0.063     2.164     2.301
    16   1 H        0.925     0.069     2.101     2.267
    17   1 H        0.923     0.044     2.391     2.418
    18   1 H        0.924     0.055     2.260     2.351
    19   1 H        0.923     0.047     2.355     2.400
    20   1 H        0.923     0.047     2.352     2.399

 Mol. C6AA /au·bohr⁶  :       3492.402423
 Mol. C8AA /au·bohr⁸  :      75182.847846
 Mol. α(0) /au        :         86.184845


Wiberg/Mayer (AO) data.
largest (>0.10) Wiberg bond orders for each atom

 ---------------------------------------------------------------------------
     #   Z sym  total        # sym  WBO       # sym  WBO       # sym  WBO
 ---------------------------------------------------------------------------
     1   6 C    3.919 --    11 H    0.981    13 H    0.977    12 H    0.977
                             2 O    0.950
     2   8 O    2.302 --     3 C    1.131     1 C    0.950     4 O    0.177
     3   6 C    3.920 --     4 O    1.784     2 O    1.131     5 C    0.919
     4   8 O    2.070 --     3 C    1.784     2 O    0.177
     5   6 C    3.949 --     6 C    0.986    10 O    0.967     7 C    0.953
                             3 C    0.919
     6   6 C    3.987 --     5 C    0.986    15 H    0.982    16 H    0.982
                            14 H    0.980
     7   6 C    3.952 --     8 O    0.986    18 H    0.970    17 H    0.965
                             5 C    0.953
     8   8 O    2.063 --     7 C    0.986     9 C    0.972
     9   6 C    3.922 --    10 O    0.989     8 O    0.972    20 H    0.962
                            19 H    0.961
    10   8 O    2.089 --     9 C    0.989     5 C    0.967
    11   1 H    0.994 --     1 C    0.981
    12   1 H    0.995 --     1 C    0.977
    13   1 H    0.995 --     1 C    0.977
    14   1 H    0.995 --     6 C    0.980
    15   1 H    0.996 --     6 C    0.982
    16   1 H    0.995 --     6 C    0.982
    17   1 H    0.998 --     7 C    0.965
    18   1 H    0.997 --     7 C    0.970
    19   1 H    0.998 --     9 C    0.961
    20   1 H    0.998 --     9 C    0.962
 ---------------------------------------------------------------------------

Topologies differ in total number of bonds
Writing topology from bond orders to xtbtopo.mol

molecular dipole:
                 x           y           z       tot (Debye)
 q only:        0.968      -0.439       0.636
   full:        1.045      -0.429       0.689       3.362
molecular quadrupole (traceless):
                xx          xy          yy          xz          yz          zz
 q only:        4.132      -3.471      -2.767      -4.550      -1.426      -1.365
  q+dip:        3.612      -3.143      -3.215      -5.842      -0.769      -0.397
   full:        3.779      -3.313      -2.290      -5.443      -1.132      -1.488

           -------------------------------------------------
          |                Geometry Summary                 |
           -------------------------------------------------

      molecular mass/u    :      146.1414426
   center of mass at/Å    :       -0.1968674      -0.0098269      -0.1615226
  moments of inertia/u·Å² :        0.2238249E+03   0.4859692E+03   0.5244552E+03
rotational constants/cm⁻¹ :        0.7531615E-01   0.3468869E-01   0.3214313E-01

 * 19 selected distances

     #   Z          #   Z                                           value/Å
     1   6 C        2   8 O                                       1.4242537
     2   8 O        3   6 C                                       1.3375358
     3   6 C        4   8 O                                       1.1982798
     5   6 C        6   6 C                                       1.5218190
     5   6 C        7   6 C                                       1.5418267 (max)
     7   6 C        8   8 O                                       1.4081701
     8   8 O        9   6 C                                       1.4128057
     5   6 C       10   8 O                                       1.4143328
     9   6 C       10   8 O                                       1.3984548
     1   6 C       11   1 H                                       1.0866710
     1   6 C       12   1 H                                       1.0914120
     1   6 C       13   1 H                                       1.0913442
     6   6 C       14   1 H                                       1.0868868
     6   6 C       15   1 H                                       1.0860032 (min)
     6   6 C       16   1 H                                       1.0867809
     7   6 C       17   1 H                                       1.0990002
     7   6 C       18   1 H                                       1.0902512
     9   6 C       19   1 H                                       1.1007392
     9   6 C       20   1 H                                       1.0995200

 * 3 distinct bonds (by element types)

   Z      Z             #   av. dist./Å        max./Å        min./Å
   1 H    6 C          10     1.0918609     1.1007392     1.0860032
   6 C    6 C           2     1.5318229     1.5418267     1.5218190
   6 C    8 O           7     1.3705475     1.4242537     1.1982798

           -------------------------------------------------
          |               Frequency Printout                |
           -------------------------------------------------
 projected vibrational frequencies (cm⁻¹)
eigval :       -0.00    -0.00    -0.00    -0.00     0.00     0.00
eigval :        7.45    41.71    55.96    94.96   144.29   177.84
eigval :      182.61   255.20   278.79   305.63   340.26   442.66
eigval :      572.16   637.98   719.53   736.83   821.42   915.33
eigval :      932.03   972.32   984.75  1004.48  1056.85  1081.24
eigval :     1099.15  1119.42  1125.60  1139.21  1150.28  1165.06
eigval :     1172.81  1198.39  1218.78  1283.83  1308.51  1383.20
eigval :     1388.34  1438.88  1459.65  1461.03  1471.81  1482.69
eigval :     1490.84  1791.74  2857.82  2881.58  2898.99  2983.46
eigval :     2993.80  2994.48  3043.08  3047.12  3051.08  3057.10
 reduced masses (amu)
   1: 12.11   2: 13.09   3: 12.70   4: 11.59   5: 13.00   6: 12.23   7: 10.66   8: 10.94
   9:  4.25  10: 11.03  11:  9.47  12:  9.93  13:  3.35  14: 10.26  15: 10.89  16: 11.20
  17: 12.33  18: 11.98  19: 11.85  20: 11.24  21: 12.75  22: 12.74  23: 12.14  24:  9.58
  25:  6.54  26: 10.83  27:  5.33  28: 10.69  29: 12.53  30:  6.25  31: 11.22  32:  3.85
  33:  9.60  34:  6.54  35:  6.63  36:  7.43  37:  7.30  38:  8.87  39:  8.84  40:  4.45
  41:  3.74  42:  2.66  43:  3.10  44:  1.53  45:  1.59  46:  1.62  47:  1.83  48:  1.65
  49:  1.84  50: 13.46  51:  1.97  52:  1.76  53:  1.44  54:  1.96  55:  1.43  56:  1.67
  57:  1.78  58:  1.78  59:  1.50  60:  1.88
 IR intensities (km·mol⁻¹)
   1:  0.84   2:  0.09   3:  0.46   4:  0.72   5:  0.25   6:  0.34   7: 14.97   8:  1.14
   9:  0.37  10:  1.13  11:  1.90  12:  3.96  13:  0.50  14:  4.99  15:  6.10  16:  7.25
  17:  1.31  18:  5.06  19: 11.01  20: 18.33  21:  6.12  22:  6.70  23: 10.04  24: 11.11
  25:  3.88  26: 48.65  27:  3.14  28: 15.70  29: 52.86  30: 19.48  31:112.30  32:  2.13
  33:168.04  34:122.50  35: 49.61  36: 82.72  37: 38.59  38: 11.92  39:  2.55  40:  4.94
  41: 15.84  42:  5.92  43:  8.34  44:  8.32  45:  4.58  46:  4.86  47:  2.41  48:  7.57
  49:  0.63  50:394.47  51: 33.63  52: 55.18  53: 48.68  54: 10.74  55: 15.90  56: 14.94
  57: 14.40  58:  6.58  59:  6.52  60: 12.58
 Raman intensities (amu)
   1:  0.00   2:  0.00   3:  0.00   4:  0.00   5:  0.00   6:  0.00   7:  0.00   8:  0.00
   9:  0.00  10:  0.00  11:  0.00  12:  0.00  13:  0.00  14:  0.00  15:  0.00  16:  0.00
  17:  0.00  18:  0.00  19:  0.00  20:  0.00  21:  0.00  22:  0.00  23:  0.00  24:  0.00
  25:  0.00  26:  0.00  27:  0.00  28:  0.00  29:  0.00  30:  0.00  31:  0.00  32:  0.00
  33:  0.00  34:  0.00  35:  0.00  36:  0.00  37:  0.00  38:  0.00  39:  0.00  40:  0.00
  41:  0.00  42:  0.00  43:  0.00  44:  0.00  45:  0.00  46:  0.00  47:  0.00  48:  0.00
  49:  0.00  50:  0.00  51:  0.00  52:  0.00  53:  0.00  54:  0.00  55:  0.00  56:  0.00
  57:  0.00  58:  0.00  59:  0.00  60:  0.00
 output can be read by thermo (or use thermo option).
 writing <g98.out> molden fake output.
 recommended (thermochemical) frequency scaling factor: 1.0
           -------------------------------------------------
          |             Thermodynamic Functions             |
           -------------------------------------------------

Molecule has no symmetry elements
It seems to be the C1 point group
c1  symmetry found (for desy threshold:  0.10E+00) used in thermo

          ...................................................
          :                      SETUP                      :
          :.................................................:
          :  # frequencies                          54      :
          :  # imaginary freq.                       0      :
          :  linear?                             false      :
          :  only rotor calc.                    false      :
          :  symmetry                               c1      :
          :  rotational number                       1      :
          :  scaling factor                  1.0000000      :
          :  rotor cutoff                   50.0000000 cm⁻¹ :
          :  imag. cutoff                  -20.0000000 cm⁻¹ :
          :.................................................:

    mode    ω/cm⁻¹     T·S(HO)/kcal·mol⁻¹    T·S(FR)/kcal·mol⁻¹   T·S(vib)
   ------------------------------------------------------------------------
       1      7.45    -2.56326 (  0.05%)    -1.61910 ( 99.95%)    -1.61957
       2     41.71    -1.54331 ( 32.62%)    -1.10998 ( 67.38%)    -1.25134
       3     55.96    -1.36992 ( 61.08%)    -1.02296 ( 38.92%)    -1.23488
       4     94.96    -1.05998 ( 92.86%)    -0.86640 (  7.14%)    -1.04617
       5    144.29    -0.81877 ( 98.58%)    -0.74250 (  1.42%)    -0.81768
       6    177.84    -0.70093 ( 99.38%)    -0.68059 (  0.62%)    -0.70080
       7    182.61    -0.68620 ( 99.44%)    -0.67275 (  0.56%)    -0.68612
       8    255.20    -0.50518 ( 99.85%)    -0.57362 (  0.15%)    -0.50528
       9    278.79    -0.45947 ( 99.90%)    -0.54743 (  0.10%)    -0.45956
   ------------------------------------------------------------------------

   temp. (K)  partition function   enthalpy   heat capacity  entropy
                                   cal/mol     cal/K/mol   cal/K/mol   J/K/mol
 298.15  VIB  0.496E+05             5200.310     31.777     34.280
         ROT  0.577E+06              888.752      2.981     29.343
         INT  0.286E+11             6089.063     34.758     63.623
         TR   0.171E+28             1481.254      4.968     40.830
         TOT                        7570.3166    39.7264   104.4531   437.0317

       T/K    H(0)-H(T)+PV         H(T)/Eh          T*S/Eh         G(T)/Eh
   ------------------------------------------------------------------------
    298.15    0.120641E-01    0.169075E+00    0.496290E-01    0.119446E+00
   ------------------------------------------------------------------------

         :::::::::::::::::::::::::::::::::::::::::::::::::::::
         ::                  THERMODYNAMIC                  ::
         :::::::::::::::::::::::::::::::::::::::::::::::::::::
         :: total free energy         -34.100508687707 Eh   ::
         ::.................................................::
         :: total energy              -34.219955122848 Eh   ::
         :: zero point energy           0.157011401269 Eh   ::
         :: G(RRHO) w/o ZPVE           -0.037564966129 Eh   ::
         :: G(RRHO) contrib.            0.119446435141 Eh   ::
         :::::::::::::::::::::::::::::::::::::::::::::::::::::

optimized geometry written to: xtbopt.xyz


           -------------------------------------------------
          | TOTAL ENERGY              -34.219955122848 Eh   |
          | TOTAL ENTHALPY            -34.050879654158 Eh   |
          | TOTAL FREE ENERGY         -34.100508687707 Eh   |
          | GRADIENT NORM               0.000760810982 Eh/α |
          | HOMO-LUMO GAP               4.278787396280 eV   |
           -------------------------------------------------

------------------------------------------------------------------------
 * finished run on 2023/09/13 at 16:13:02.542     
------------------------------------------------------------------------
 total:
 * wall-time:     0 d,  0 h,  0 min,  0.227 sec
 *  cpu-time:     0 d,  0 h,  0 min,  3.169 sec
 * ratio c/w:    13.981 speedup
 SCF:
 * wall-time:     0 d,  0 h,  0 min,  0.011 sec
 *  cpu-time:     0 d,  0 h,  0 min,  0.174 sec
 * ratio c/w:    15.503 speedup
 ANC optimizer:
 * wall-time:     0 d,  0 h,  0 min,  0.052 sec
 *  cpu-time:     0 d,  0 h,  0 min,  0.816 sec
 * ratio c/w:    15.619 speedup
 analytical hessian:
 * wall-time:     0 d,  0 h,  0 min,  0.108 sec
 *  cpu-time:     0 d,  0 h,  0 min,  1.542 sec
 * ratio c/w:    14.308 speedup

