 Entering Gaussian System, Link 0=/gpfslocalsup/prod/g16/rev-C01/g16/g16
 Input=p0_C6H12NO_sp_g16.com
 Output=p0_C6H12NO_sp_g16.log
 Initial command:
 /gpfslocalsup/prod/g16/rev-C01/g16/l1.exe "/gpfsssd/jobscratch/uzg38mn_1841822/Gau-1795577.inp" -scrdir="/gpfsssd/jobscratch/uzg38mn_1841822/"
 Entering Link 1 = /gpfslocalsup/prod/g16/rev-C01/g16/l1.exe PID=   1795578.
  
 Copyright (c) 1988-2019, Gaussian, Inc.  All Rights Reserved.
  
 This is part of the Gaussian(R) 16 program.  It is based on
 the Gaussian(R) 09 system (copyright 2009, Gaussian, Inc.),
 the Gaussian(R) 03 system (copyright 2003, Gaussian, Inc.),
 the Gaussian(R) 98 system (copyright 1998, Gaussian, Inc.),
 the Gaussian(R) 94 system (copyright 1995, Gaussian, Inc.),
 the Gaussian 92(TM) system (copyright 1992, Gaussian, Inc.),
 the Gaussian 90(TM) system (copyright 1990, Gaussian, Inc.),
 the Gaussian 88(TM) system (copyright 1988, Gaussian, Inc.),
 the Gaussian 86(TM) system (copyright 1986, Carnegie Mellon
 University), and the Gaussian 82(TM) system (copyright 1983,
 Carnegie Mellon University). Gaussian is a federally registered
 trademark of Gaussian, Inc.
  
 This software contains proprietary and confidential information,
 including trade secrets, belonging to Gaussian, Inc.
  
 This software is provided under written license and may be
 used, copied, transmitted, or stored only in accord with that
 written license.
  
 The following legend is applicable only to US Government
 contracts under FAR:
  
                    RESTRICTED RIGHTS LEGEND
  
 Use, reproduction and disclosure by the US Government is
 subject to restrictions as set forth in subparagraphs (a)
 and (c) of the Commercial Computer Software - Restricted
 Rights clause in FAR 52.227-19.
  
 Gaussian, Inc.
 340 Quinnipiac St., Bldg. 40, Wallingford CT 06492
  
  
 ---------------------------------------------------------------
 Warning -- This program may not be used in any manner that
 competes with the business of Gaussian, Inc. or will provide
 assistance to any competitor of Gaussian, Inc.  The licensee
 of this program is prohibited from giving any competitor of
 Gaussian, Inc. access to this program.  By using this program,
 the user acknowledges that Gaussian, Inc. is engaged in the
 business of creating and licensing software in the field of
 computational chemistry and represents and warrants to the
 licensee that it is not a competitor of Gaussian, Inc. and that
 it will not use this program in any manner prohibited above.
 ---------------------------------------------------------------
  

 Cite this work as:
 Gaussian 16, Revision C.01,
 M. J. Frisch, G. W. Trucks, H. B. Schlegel, G. E. Scuseria, 
 M. A. Robb, J. R. Cheeseman, G. Scalmani, V. Barone, 
 G. A. Petersson, H. Nakatsuji, X. Li, M. Caricato, A. V. Marenich, 
 J. Bloino, B. G. Janesko, R. Gomperts, B. Mennucci, H. P. Hratchian, 
 J. V. Ortiz, A. F. Izmaylov, J. L. Sonnenberg, D. Williams-Young, 
 F. Ding, F. Lipparini, F. Egidi, J. Goings, B. Peng, A. Petrone, 
 T. Henderson, D. Ranasinghe, V. G. Zakrzewski, J. Gao, N. Rega, 
 G. Zheng, W. Liang, M. Hada, M. Ehara, K. Toyota, R. Fukuda, 
 J. Hasegawa, M. Ishida, T. Nakajima, Y. Honda, O. Kitao, H. Nakai, 
 T. Vreven, K. Throssell, J. A. Montgomery, Jr., J. E. Peralta, 
 F. Ogliaro, M. J. Bearpark, J. J. Heyd, E. N. Brothers, K. N. Kudin, 
 V. N. Staroverov, T. A. Keith, R. Kobayashi, J. Normand, 
 K. Raghavachari, A. P. Rendell, J. C. Burant, S. S. Iyengar, 
 J. Tomasi, M. Cossi, J. M. Millam, M. Klene, C. Adamo, R. Cammi, 
 J. W. Ochterski, R. L. Martin, K. Morokuma, O. Farkas, 
 J. B. Foresman, and D. J. Fox, Gaussian, Inc., Wallingford CT, 2019.
 
 ******************************************
 Gaussian 16:  ES64L-G16RevC.01  3-Jul-2019
                11-Sep-2023 
 ******************************************
 %mem=96000MB
 %nprocshared=24
 Will use up to   24 processors via shared memory.
 -----------------------------------
 # um062x Def2TZVP stable=opt NoSymm
 -----------------------------------
 1/38=1,172=1/1;
 2/12=2,15=1,17=6,18=5,40=1/2;
 3/5=44,7=101,11=2,25=1,30=1,74=-55,116=2/1,2,3;
 4//1;
 5/5=2,38=5/2;
 6/7=2,8=2,9=2,10=2,28=1/1;
 8/6=1,10=90,11=11/1;
 9/8=-3,42=1,46=1/14;
 5/5=2,8=3,17=40,38=5/8(-2);
 6/7=2,8=2,9=2,10=2,28=1/1;
 99/5=1,9=1/99;
 -----------------
 p0_C6H12NO_sp_g16
 -----------------
 Symbolic Z-matrix:
 Charge =  0 Multiplicity = 2
 C                    -1.85946  -0.71904  -0.78054 
 C                    -1.48225   0.6342   -0.27776 
 C                    -2.5082    1.71671  -0.26175 
 C                    -0.31272   0.74729   0.65804 
 N                     0.85961   0.02333   0.21421 
 C                     1.48655   0.44287  -1.01922 
 C                     1.35675  -1.03827   0.90797 
 O                     2.31917  -1.69539   0.59451 
 H                    -2.46828  -0.65119  -1.69433 
 H                    -0.97393  -1.33528  -0.99575 
 H                    -2.46453  -1.27358  -0.03515 
 H                    -3.07836   1.74083  -1.20279 
 H                    -2.05415   2.70679  -0.10648 
 H                    -3.24858   1.57011   0.55011 
 H                    -0.57732   0.35745   1.66229 
 H                    -0.05728   1.81317   0.80091 
 H                     2.35863  -0.19724  -1.19271 
 H                     0.78643   0.35137  -1.86508 
 H                     1.80951   1.49387  -0.94976 
 H                     0.76274  -1.24433   1.82927 
 
                          Input orientation:                          
 ---------------------------------------------------------------------
 Center     Atomic      Atomic             Coordinates (Angstroms)
 Number     Number       Type             X           Y           Z
 ---------------------------------------------------------------------
      1          6           0       -1.859458   -0.719041   -0.780538
      2          6           0       -1.482248    0.634204   -0.277760
      3          6           0       -2.508198    1.716709   -0.261745
      4          6           0       -0.312719    0.747294    0.658044
      5          7           0        0.859608    0.023329    0.214211
      6          6           0        1.486553    0.442869   -1.019224
      7          6           0        1.356752   -1.038271    0.907966
      8          8           0        2.319168   -1.695394    0.594514
      9          1           0       -2.468283   -0.651192   -1.694326
     10          1           0       -0.973928   -1.335279   -0.995749
     11          1           0       -2.464526   -1.273578   -0.035146
     12          1           0       -3.078357    1.740834   -1.202789
     13          1           0       -2.054145    2.706791   -0.106482
     14          1           0       -3.248576    1.570109    0.550112
     15          1           0       -0.577322    0.357449    1.662295
     16          1           0       -0.057278    1.813172    0.800915
     17          1           0        2.358632   -0.197238   -1.192706
     18          1           0        0.786428    0.351371   -1.865081
     19          1           0        1.809513    1.493870   -0.949761
     20          1           0        0.762742   -1.244328    1.829270
 ---------------------------------------------------------------------
                    Distance matrix (angstroms):
                    1          2          3          4          5
     1  C    0.000000
     2  C    1.492094   0.000000
     3  C    2.573497   1.491525   0.000000
     4  C    2.571392   1.502104   2.570196   0.000000
     5  N    2.988973   2.469715   3.799498   1.447572   0.000000
     6  C    3.550042   3.065968   4.260807   2.478565   1.445834
     7  C    3.646500   3.501862   4.888351   2.457201   1.362146
     8  O    4.506101   4.542978   5.973198   3.591321   2.286691
     9  H    1.100127   2.152015   2.767822   3.483657   3.895170
    10  H    1.100104   2.157026   3.493906   2.740317   2.582958
    11  H    1.108705   2.159482   2.999178   3.032278   3.576872
    12  H    2.777588   2.151249   1.100558   3.478301   4.523857
    13  H    3.496939   2.156854   1.100242   2.730695   3.974137
    14  H    2.990065   2.163609   1.108496   3.050890   4.402560
    15  H    2.961442   2.158541   3.045948   1.109285   2.067209
    16  H    3.487255   2.141038   2.673118   1.105332   2.094860
    17  H    4.270181   4.034945   5.311866   3.384307   2.067641
    18  H    3.053314   2.783249   3.910166   2.780475   2.106282
    19  H    4.288002   3.467896   4.377859   2.765191   2.102294
    20  H    3.736704   3.606721   4.882533   2.548518   2.055420
                    6          7          8          9         10
     6  C    0.000000
     7  C    2.434068   0.000000
     8  O    2.805275   1.206776   0.000000
     9  H    4.158541   4.642483   5.408219   0.000000
    10  H    3.035841   3.023973   3.674657   1.785800   0.000000
    11  H    4.418781   3.942968   4.843359   1.772077   1.774387
    12  H    4.749401   5.643483   6.646145   2.517059   3.732822
    13  H    4.300579   5.166122   6.244717   3.737487   4.277382
    14  H    5.114189   5.304786   6.454863   3.252774   4.000624
    15  H    3.384881   2.501537   3.707287   3.982461   3.176133
    16  H    2.752099   3.184599   4.242656   4.255850   3.739117
    17  H    1.095607   2.474656   2.332420   4.874095   3.527022
    18  H    1.101826   3.153754   3.547978   3.409902   2.588316
    19  H    1.101695   3.172992   3.579936   4.843058   3.969098
    20  H    3.388872   1.115396   2.037289   4.817371   3.317383
                   11         12         13         14         15
    11  H    0.000000
    12  H    3.290419   0.000000
    13  H    4.002104   1.784369   0.000000
    14  H    3.007294   1.769402   1.774775   0.000000
    15  H    3.017133   4.046929   3.290742   3.137370   0.000000
    16  H    4.002732   3.625877   2.368418   3.210353   1.769619
    17  H    5.075560   5.772094   5.393132   6.132023   4.132618
    18  H    4.069131   4.160024   4.087729   4.857956   3.781829
    19  H    5.173268   4.900642   4.136442   5.276334   3.716352
    20  H    3.727219   5.732243   5.224302   5.064383   2.095076
                   16         17         18         19         20
    16  H    0.000000
    17  H    3.721948   0.000000
    18  H    3.155350   1.795797   0.000000
    19  H    2.579095   1.794547   1.786006   0.000000
    20  H    3.328401   3.574297   4.024307   4.039365   0.000000
 Symmetry turned off by external request.
 Stoichiometry    C6H12NO(2)
 Framework group  C1[X(C6H12NO)]
 Deg. of freedom    54
 Full point group                 C1      NOp   1
 Rotational constants (GHZ):           4.0166749           1.0922926           1.0391661
 Standard basis: def2TZVP (5D, 7F)
   320 basis functions,   504 primitive gaussians,   360 cartesian basis functions
    32 alpha electrons       31 beta electrons
       nuclear repulsion energy       384.7807385390 Hartrees.
 NAtoms=   20 NActive=   20 NUniq=   20 SFac= 1.00D+00 NAtFMM=   60 NAOKFM=F Big=F
 Integral buffers will be    131072 words long.
 Raffenetti 2 integral format.
 Two-electron integral symmetry is turned off.
 One-electron integrals computed using PRISM.
   1 Symmetry operations used in ECPInt.
 ECPInt:  NShTT=    9316 NPrTT=   27240 LenC2=    9086 LenP2D=   21286.
 LDataN:  DoStor=T MaxTD1= 6 Len=  172
 NBasis=   320 RedAO= T EigKep=  1.91D-04  NBF=   320
 NBsUse=   320 1.00D-06 EigRej= -1.00D+00 NBFU=   320
 ExpMin= 9.52D-02 ExpMax= 2.70D+04 ExpMxC= 9.22D+02 IAcc=3 IRadAn=         5 AccDes= 0.00D+00
 Harris functional with IExCor= 1009 and IRadAn=       5 diagonalized for initial guess.
 HarFok:  IExCor= 1009 AccDes= 0.00D+00 IRadAn=         5 IDoV= 1 UseB2=F ITyADJ=14
 ICtDFT=  3500011 ScaDFX=  1.000000  1.000000  1.000000  1.000000
 FoFCou: FMM=F IPFlag=           0 FMFlag=      100000 FMFlg1=           0
         NFxFlg=           0 DoJE=T BraDBF=F KetDBF=T FulRan=T
         wScrn=  0.000000 ICntrl=       500 IOpCl=  0 I1Cent=   200000004 NGrid=           0
         NMat0=    1 NMatS0=      1 NMatT0=    0 NMatD0=    1 NMtDS0=    0 NMtDT0=    0
 Symmetry not used in FoFCou.
 Initial guess <Sx>= 0.0000 <Sy>= 0.0000 <Sz>= 0.5000 <S**2>= 0.7500 S= 0.5000
 Requested convergence on RMS density matrix=1.00D-08 within 128 cycles.
 Requested convergence on MAX density matrix=1.00D-06.
 Requested convergence on             energy=1.00D-06.
 No special actions if energy rises.
 Integral accuracy reduced to 1.0D-05 until final iterations.
 Initial convergence to 1.0D-05 achieved.  Increase integral accuracy.
 SCF Done:  E(UM062X) =  -365.760805295     A.U. after   17 cycles
            NFock= 17  Conv=0.54D-08     -V/T= 2.0053
 <Sx>= 0.0000 <Sy>= 0.0000 <Sz>= 0.5000 <S**2>= 0.7551 S= 0.5025
 <L.S>=  0.00000000000    
 Annihilation of the first spin contaminant:
 S**2 before annihilation     0.7551,   after     0.7500

 **********************************************************************

            Population analysis using the SCF Density.

 **********************************************************************

 Alpha  occ. eigenvalues --  -19.59179 -14.77991 -10.63505 -10.58799 -10.56753
 Alpha  occ. eigenvalues --  -10.55971 -10.54284 -10.53907  -1.16235  -1.05642
 Alpha  occ. eigenvalues --   -0.91519  -0.82210  -0.79697  -0.79094  -0.65858
 Alpha  occ. eigenvalues --   -0.63707  -0.59572  -0.56141  -0.54915  -0.52197
 Alpha  occ. eigenvalues --   -0.50534  -0.49518  -0.47845  -0.46488  -0.45544
 Alpha  occ. eigenvalues --   -0.45357  -0.45021  -0.42724  -0.42385  -0.33581
 Alpha  occ. eigenvalues --   -0.30847  -0.24681
 Alpha virt. eigenvalues --    0.05352   0.05753   0.09080   0.09764   0.10455
 Alpha virt. eigenvalues --    0.11623   0.12421   0.13594   0.14445   0.15013
 Alpha virt. eigenvalues --    0.15585   0.15828   0.17078   0.17198   0.17728
 Alpha virt. eigenvalues --    0.18689   0.20320   0.21189   0.22292   0.24093
 Alpha virt. eigenvalues --    0.25294   0.26146   0.28225   0.29407   0.30444
 Alpha virt. eigenvalues --    0.32938   0.33438   0.34725   0.36028   0.36335
 Alpha virt. eigenvalues --    0.38094   0.38496   0.39495   0.40385   0.41175
 Alpha virt. eigenvalues --    0.41903   0.42879   0.45170   0.45850   0.46072
 Alpha virt. eigenvalues --    0.46568   0.48633   0.49645   0.50068   0.51222
 Alpha virt. eigenvalues --    0.51394   0.52003   0.52614   0.53877   0.54529
 Alpha virt. eigenvalues --    0.56188   0.57304   0.58443   0.59007   0.62295
 Alpha virt. eigenvalues --    0.63999   0.64387   0.65670   0.66215   0.70168
 Alpha virt. eigenvalues --    0.72535   0.72810   0.73679   0.75290   0.79038
 Alpha virt. eigenvalues --    0.80497   0.83248   0.85149   0.86800   0.90877
 Alpha virt. eigenvalues --    0.92376   0.93965   0.95506   0.96084   0.97115
 Alpha virt. eigenvalues --    0.99262   1.00570   1.03206   1.05138   1.06445
 Alpha virt. eigenvalues --    1.08362   1.10013   1.10721   1.14084   1.14538
 Alpha virt. eigenvalues --    1.16748   1.17051   1.20158   1.24512   1.28665
 Alpha virt. eigenvalues --    1.33168   1.34696   1.36124   1.40881   1.43439
 Alpha virt. eigenvalues --    1.46823   1.47569   1.48966   1.52663   1.53853
 Alpha virt. eigenvalues --    1.54290   1.56062   1.56801   1.57623   1.58067
 Alpha virt. eigenvalues --    1.58921   1.59128   1.60972   1.61446   1.62473
 Alpha virt. eigenvalues --    1.63490   1.64528   1.65449   1.67228   1.69847
 Alpha virt. eigenvalues --    1.70858   1.72347   1.75137   1.76562   1.78786
 Alpha virt. eigenvalues --    1.81678   1.86120   1.89157   1.91068   1.92088
 Alpha virt. eigenvalues --    1.95643   1.97219   1.97384   1.99347   2.01387
 Alpha virt. eigenvalues --    2.03519   2.04505   2.06698   2.07380   2.09366
 Alpha virt. eigenvalues --    2.12457   2.13799   2.17000   2.18713   2.19901
 Alpha virt. eigenvalues --    2.20802   2.25002   2.25528   2.28410   2.31187
 Alpha virt. eigenvalues --    2.32006   2.33936   2.35856   2.37093   2.38312
 Alpha virt. eigenvalues --    2.40564   2.41256   2.42817   2.44949   2.46705
 Alpha virt. eigenvalues --    2.46954   2.48634   2.51840   2.52711   2.53398
 Alpha virt. eigenvalues --    2.54680   2.55034   2.56926   2.57797   2.59217
 Alpha virt. eigenvalues --    2.60773   2.63192   2.63678   2.67149   2.69322
 Alpha virt. eigenvalues --    2.75155   2.77117   2.79836   2.81067   2.81538
 Alpha virt. eigenvalues --    2.83869   2.85419   2.89452   2.91393   2.93187
 Alpha virt. eigenvalues --    2.95769   2.97910   2.99225   3.01340   3.03988
 Alpha virt. eigenvalues --    3.04774   3.06672   3.08044   3.09622   3.10370
 Alpha virt. eigenvalues --    3.11892   3.13967   3.14971   3.16465   3.17543
 Alpha virt. eigenvalues --    3.19356   3.21269   3.22015   3.23465   3.24766
 Alpha virt. eigenvalues --    3.25497   3.28829   3.29584   3.31064   3.32284
 Alpha virt. eigenvalues --    3.34355   3.34753   3.35393   3.37950   3.39605
 Alpha virt. eigenvalues --    3.41503   3.42465   3.43995   3.46856   3.53550
 Alpha virt. eigenvalues --    3.54394   3.56154   3.57950   3.61140   3.62207
 Alpha virt. eigenvalues --    3.64215   3.66379   3.68363   3.72922   3.73814
 Alpha virt. eigenvalues --    3.76072   3.78915   3.80169   3.82274   3.86243
 Alpha virt. eigenvalues --    3.94272   3.96057   3.97636   3.99617   4.01326
 Alpha virt. eigenvalues --    4.06248   4.07313   4.09903   4.14169   4.15426
 Alpha virt. eigenvalues --    4.21162   4.21944   4.30202   4.33342   4.34245
 Alpha virt. eigenvalues --    4.39072   4.41779   4.42391   4.44125   4.47855
 Alpha virt. eigenvalues --    4.53017   4.61068   4.70341   4.72053   4.80418
 Alpha virt. eigenvalues --    4.86069   4.94838   4.96503   5.00501   5.10398
 Alpha virt. eigenvalues --    5.17800   5.19119   5.23593   5.27095   5.28162
 Alpha virt. eigenvalues --    5.29153   5.52062   5.57151   5.63750   5.67297
 Alpha virt. eigenvalues --    5.72593   5.84546   6.12215   6.38542   6.39767
 Alpha virt. eigenvalues --    6.48249   6.60110   6.81383   6.99263   7.08980
 Alpha virt. eigenvalues --   22.37634  22.46054  22.50844  22.62711  22.74245
 Alpha virt. eigenvalues --   23.18330  32.91116  43.97675
  Beta  occ. eigenvalues --  -19.59175 -14.77965 -10.63504 -10.58864 -10.56747
  Beta  occ. eigenvalues --  -10.55259 -10.54347 -10.53965  -1.16220  -1.05500
  Beta  occ. eigenvalues --   -0.89634  -0.82045  -0.79364  -0.78909  -0.65386
  Beta  occ. eigenvalues --   -0.62363  -0.58907  -0.55685  -0.54389  -0.50311
  Beta  occ. eigenvalues --   -0.50173  -0.49042  -0.47462  -0.45790  -0.45406
  Beta  occ. eigenvalues --   -0.45036  -0.44804  -0.42307  -0.41903  -0.33479
  Beta  occ. eigenvalues --   -0.30675
  Beta virt. eigenvalues --   -0.01388   0.04942   0.05735   0.08795   0.09241
  Beta virt. eigenvalues --    0.10113   0.11419   0.11981   0.13470   0.14160
  Beta virt. eigenvalues --    0.14877   0.15627   0.15929   0.16888   0.17549
  Beta virt. eigenvalues --    0.17720   0.18447   0.20222   0.21072   0.21784
  Beta virt. eigenvalues --    0.24116   0.25092   0.25844   0.28258   0.29378
  Beta virt. eigenvalues --    0.30387   0.32734   0.33775   0.35202   0.36259
  Beta virt. eigenvalues --    0.37149   0.37999   0.38789   0.39586   0.40594
  Beta virt. eigenvalues --    0.40974   0.41974   0.43053   0.45156   0.45892
  Beta virt. eigenvalues --    0.46034   0.46644   0.48067   0.49530   0.49941
  Beta virt. eigenvalues --    0.51245   0.51572   0.52206   0.52481   0.53970
  Beta virt. eigenvalues --    0.55123   0.56244   0.57542   0.58882   0.59256
  Beta virt. eigenvalues --    0.62336   0.64016   0.64301   0.65639   0.66389
  Beta virt. eigenvalues --    0.70264   0.72595   0.73280   0.73713   0.75361
  Beta virt. eigenvalues --    0.79012   0.80706   0.83664   0.85388   0.87009
  Beta virt. eigenvalues --    0.90960   0.92418   0.93990   0.95672   0.95970
  Beta virt. eigenvalues --    0.97189   0.99397   1.00862   1.03431   1.05219
  Beta virt. eigenvalues --    1.06632   1.08487   1.10353   1.10781   1.14147
  Beta virt. eigenvalues --    1.14753   1.16924   1.17401   1.20257   1.25701
  Beta virt. eigenvalues --    1.29599   1.34250   1.35188   1.36853   1.41236
  Beta virt. eigenvalues --    1.43631   1.46940   1.47721   1.49176   1.52913
  Beta virt. eigenvalues --    1.54121   1.54464   1.56867   1.57208   1.57936
  Beta virt. eigenvalues --    1.58178   1.59048   1.59979   1.61021   1.61368
  Beta virt. eigenvalues --    1.62703   1.63497   1.64586   1.65469   1.67333
  Beta virt. eigenvalues --    1.70385   1.70929   1.72589   1.75346   1.77373
  Beta virt. eigenvalues --    1.78829   1.82225   1.86503   1.89532   1.91137
  Beta virt. eigenvalues --    1.92806   1.96314   1.97511   1.97764   2.00087
  Beta virt. eigenvalues --    2.01893   2.04472   2.04832   2.07045   2.07567
  Beta virt. eigenvalues --    2.09649   2.12671   2.14077   2.17717   2.19185
  Beta virt. eigenvalues --    2.20256   2.21240   2.25331   2.25854   2.28646
  Beta virt. eigenvalues --    2.31543   2.32278   2.34204   2.36163   2.37579
  Beta virt. eigenvalues --    2.38774   2.40890   2.41462   2.43230   2.45635
  Beta virt. eigenvalues --    2.46995   2.47297   2.49701   2.52246   2.52984
  Beta virt. eigenvalues --    2.53638   2.55198   2.55771   2.57021   2.57997
  Beta virt. eigenvalues --    2.59389   2.61347   2.63537   2.64291   2.67420
  Beta virt. eigenvalues --    2.69763   2.75640   2.77975   2.80444   2.81567
  Beta virt. eigenvalues --    2.81757   2.84291   2.85863   2.89779   2.93545
  Beta virt. eigenvalues --    2.95395   2.97346   2.98333   3.01731   3.02766
  Beta virt. eigenvalues --    3.04935   3.05232   3.06826   3.09202   3.09918
  Beta virt. eigenvalues --    3.10691   3.13027   3.14231   3.15362   3.16773
  Beta virt. eigenvalues --    3.18159   3.21048   3.21677   3.23353   3.24296
  Beta virt. eigenvalues --    3.25334   3.26196   3.29266   3.30034   3.31109
  Beta virt. eigenvalues --    3.33356   3.34909   3.35128   3.36399   3.38421
  Beta virt. eigenvalues --    3.40419   3.41930   3.43223   3.44413   3.47307
  Beta virt. eigenvalues --    3.53637   3.54659   3.56954   3.58168   3.62471
  Beta virt. eigenvalues --    3.63597   3.65694   3.66783   3.69253   3.73628
  Beta virt. eigenvalues --    3.74273   3.76694   3.80332   3.81065   3.83905
  Beta virt. eigenvalues --    3.88217   3.95474   3.97311   3.98883   4.00922
  Beta virt. eigenvalues --    4.02539   4.06833   4.08842   4.10684   4.14671
  Beta virt. eigenvalues --    4.17260   4.22095   4.22245   4.31280   4.34723
  Beta virt. eigenvalues --    4.35353   4.40613   4.42733   4.43503   4.44524
  Beta virt. eigenvalues --    4.49161   4.54501   4.62622   4.75857   4.76911
  Beta virt. eigenvalues --    4.82349   4.87103   4.96000   5.01106   5.02545
  Beta virt. eigenvalues --    5.11217   5.18018   5.19328   5.24331   5.27189
  Beta virt. eigenvalues --    5.28397   5.29674   5.52137   5.57255   5.63961
  Beta virt. eigenvalues --    5.67324   5.72723   5.84619   6.12215   6.38543
  Beta virt. eigenvalues --    6.39770   6.48254   6.60119   6.81370   6.99279
  Beta virt. eigenvalues --    7.08975  22.37903  22.46098  22.50855  22.63222
  Beta virt. eigenvalues --   22.75084  23.18334  32.91132  43.97674
          Condensed to atoms (all electrons):
               1          2          3          4          5          6
     1  C    5.147359   0.149800  -0.064784  -0.052287   0.043295  -0.006226
     2  C    0.149800   6.014055   0.287877   0.114030  -0.144600   0.017376
     3  C   -0.064784   0.287877   5.047642  -0.078708   0.007888   0.000311
     4  C   -0.052287   0.114030  -0.078708   5.269072   0.273501  -0.070884
     5  N    0.043295  -0.144600   0.007888   0.273501   6.889971   0.210631
     6  C   -0.006226   0.017376   0.000311  -0.070884   0.210631   5.017522
     7  C   -0.002319  -0.002145  -0.000829  -0.045014   0.301921  -0.046585
     8  O   -0.000892   0.000540   0.000002   0.002345  -0.125493  -0.013472
     9  H    0.421030  -0.053079  -0.010919   0.013267   0.000015  -0.000280
    10  H    0.430517  -0.051083   0.008822  -0.015099   0.007771  -0.000216
    11  H    0.380665  -0.034659  -0.002237  -0.007046  -0.003465   0.000361
    12  H   -0.010483  -0.052273   0.419899   0.014586  -0.000333  -0.000012
    13  H    0.011440  -0.051531   0.415456  -0.005816   0.000342  -0.000223
    14  H   -0.008127  -0.043752   0.404435  -0.011695  -0.000648   0.000116
    15  H   -0.007845  -0.040440   0.002987   0.393613  -0.049092   0.009115
    16  H    0.013313  -0.119011  -0.000923   0.473216  -0.036667  -0.007168
    17  H   -0.000049  -0.000541  -0.000047   0.009161  -0.034319   0.405629
    18  H   -0.007888   0.028460   0.001405  -0.027020  -0.049226   0.421080
    19  H    0.001599  -0.015581  -0.000499   0.008704  -0.041997   0.407943
    20  H    0.000672  -0.007609  -0.000147   0.008629  -0.131776   0.009128
               7          8          9         10         11         12
     1  C   -0.002319  -0.000892   0.421030   0.430517   0.380665  -0.010483
     2  C   -0.002145   0.000540  -0.053079  -0.051083  -0.034659  -0.052273
     3  C   -0.000829   0.000002  -0.010919   0.008822  -0.002237   0.419899
     4  C   -0.045014   0.002345   0.013267  -0.015099  -0.007046   0.014586
     5  N    0.301921  -0.125493   0.000015   0.007771  -0.003465  -0.000333
     6  C   -0.046585  -0.013472  -0.000280  -0.000216   0.000361  -0.000012
     7  C    4.555962   0.647743   0.000054  -0.002932   0.000050   0.000009
     8  O    0.647743   7.890939   0.000002   0.000199   0.000020  -0.000000
     9  H    0.000054   0.000002   0.527974  -0.019764  -0.031281   0.004475
    10  H   -0.002932   0.000199  -0.019764   0.510805  -0.030909   0.000243
    11  H    0.000050   0.000020  -0.031281  -0.030909   0.564913  -0.001214
    12  H    0.000009  -0.000000   0.004475   0.000243  -0.001214   0.532320
    13  H    0.000000   0.000000   0.000172  -0.000252  -0.000642  -0.019532
    14  H    0.000003  -0.000000  -0.001200  -0.000588   0.007130  -0.035724
    15  H   -0.013550   0.000215  -0.001014  -0.000608   0.007458  -0.000936
    16  H    0.002772   0.000048  -0.000123   0.000020  -0.000733  -0.000203
    17  H   -0.015106   0.022477  -0.000016  -0.000360   0.000030  -0.000004
    18  H    0.004005   0.000874  -0.000261  -0.000670   0.000144   0.000142
    19  H    0.003048   0.000723   0.000015   0.000039  -0.000019  -0.000014
    20  H    0.441102  -0.055354  -0.000062  -0.000583   0.000368  -0.000002
              13         14         15         16         17         18
     1  C    0.011440  -0.008127  -0.007845   0.013313  -0.000049  -0.007888
     2  C   -0.051531  -0.043752  -0.040440  -0.119011  -0.000541   0.028460
     3  C    0.415456   0.404435   0.002987  -0.000923  -0.000047   0.001405
     4  C   -0.005816  -0.011695   0.393613   0.473216   0.009161  -0.027020
     5  N    0.000342  -0.000648  -0.049092  -0.036667  -0.034319  -0.049226
     6  C   -0.000223   0.000116   0.009115  -0.007168   0.405629   0.421080
     7  C    0.000000   0.000003  -0.013550   0.002772  -0.015106   0.004005
     8  O    0.000000  -0.000000   0.000215   0.000048   0.022477   0.000874
     9  H    0.000172  -0.001200  -0.001014  -0.000123  -0.000016  -0.000261
    10  H   -0.000252  -0.000588  -0.000608   0.000020  -0.000360  -0.000670
    11  H   -0.000642   0.007130   0.007458  -0.000733   0.000030   0.000144
    12  H   -0.019532  -0.035724  -0.000936  -0.000203  -0.000004   0.000142
    13  H    0.538519  -0.032839  -0.000382   0.003572  -0.000006  -0.000011
    14  H   -0.032839   0.567241   0.005809  -0.000875   0.000003  -0.000040
    15  H   -0.000382   0.005809   0.554253  -0.024530  -0.000031  -0.000240
    16  H    0.003572  -0.000875  -0.024530   0.529833   0.000058  -0.002269
    17  H   -0.000006   0.000003  -0.000031   0.000058   0.465138  -0.022394
    18  H   -0.000011  -0.000040  -0.000240  -0.002269  -0.022394   0.534927
    19  H    0.000110   0.000002  -0.000076   0.005726  -0.017855  -0.040618
    20  H    0.000010  -0.000002   0.003881   0.001266   0.002611  -0.000187
              19         20
     1  C    0.001599   0.000672
     2  C   -0.015581  -0.007609
     3  C   -0.000499  -0.000147
     4  C    0.008704   0.008629
     5  N   -0.041997  -0.131776
     6  C    0.407943   0.009128
     7  C    0.003048   0.441102
     8  O    0.000723  -0.055354
     9  H    0.000015  -0.000062
    10  H    0.000039  -0.000583
    11  H   -0.000019   0.000368
    12  H   -0.000014  -0.000002
    13  H    0.000110   0.000010
    14  H    0.000002  -0.000002
    15  H   -0.000076   0.003881
    16  H    0.005726   0.001266
    17  H   -0.017855   0.002611
    18  H   -0.040618  -0.000187
    19  H    0.541966  -0.000119
    20  H   -0.000119   0.642929
          Atomic-Atomic Spin Densities.
               1          2          3          4          5          6
     1  C   -0.062023  -0.092353   0.013123   0.021683   0.007211   0.000803
     2  C   -0.092353   1.386828  -0.051327  -0.065064  -0.037198  -0.001281
     3  C    0.013123  -0.051327  -0.076643   0.014327  -0.000477   0.000605
     4  C    0.021683  -0.065064   0.014327  -0.069728   0.015665   0.005369
     5  N    0.007211  -0.037198  -0.000477   0.015665   0.041928  -0.004917
     6  C    0.000803  -0.001281   0.000605   0.005369  -0.004917   0.004461
     7  C   -0.000479   0.001923   0.000103   0.000828  -0.005186   0.000420
     8  O    0.000066  -0.000273  -0.000001   0.000061   0.000241   0.000205
     9  H    0.016870  -0.021394   0.002007   0.001911   0.000425   0.000025
    10  H    0.012007  -0.013009   0.000260   0.001412   0.002555  -0.000102
    11  H   -0.001753  -0.024168  -0.000507  -0.006155  -0.002067   0.000080
    12  H    0.005160  -0.022042   0.012901   0.002689   0.000188  -0.000022
    13  H    0.000405  -0.015612   0.009002   0.006921   0.000348  -0.000144
    14  H   -0.004732  -0.028881   0.013518  -0.009573  -0.000594   0.000076
    15  H   -0.007198  -0.017677   0.000342  -0.008453  -0.016657   0.001681
    16  H    0.001303  -0.019289   0.001327   0.014740   0.006942  -0.002260
    17  H   -0.000171   0.000893  -0.000033  -0.000772   0.000947  -0.001182
    18  H    0.001908  -0.009615   0.000548   0.003479   0.001919   0.002014
    19  H   -0.000082  -0.000763  -0.000042   0.001018   0.000027  -0.001284
    20  H   -0.000136  -0.000033  -0.000011   0.000872   0.001357   0.000071
               7          8          9         10         11         12
     1  C   -0.000479   0.000066   0.016870   0.012007  -0.001753   0.005160
     2  C    0.001923  -0.000273  -0.021394  -0.013009  -0.024168  -0.022042
     3  C    0.000103  -0.000001   0.002007   0.000260  -0.000507   0.012901
     4  C    0.000828   0.000061   0.001911   0.001412  -0.006155   0.002689
     5  N   -0.005186   0.000241   0.000425   0.002555  -0.002067   0.000188
     6  C    0.000420   0.000205   0.000025  -0.000102   0.000080  -0.000022
     7  C    0.005796  -0.001532  -0.000017   0.000068  -0.000217   0.000003
     8  O   -0.001532   0.003012   0.000001   0.000024  -0.000001   0.000000
     9  H   -0.000017   0.000001   0.023937   0.003899  -0.014348   0.002297
    10  H    0.000068   0.000024   0.003899   0.016231  -0.011114   0.000306
    11  H   -0.000217  -0.000001  -0.014348  -0.011114   0.109218  -0.002370
    12  H    0.000003   0.000000   0.002297   0.000306  -0.002370   0.030032
    13  H    0.000019   0.000000   0.000281   0.000073  -0.000477   0.004740
    14  H   -0.000034  -0.000000  -0.002151  -0.000454   0.007932  -0.016522
    15  H   -0.001755  -0.000071  -0.000754  -0.001791   0.008139  -0.000738
    16  H    0.000065   0.000024   0.000148   0.000243  -0.000595   0.000382
    17  H   -0.000884  -0.000377  -0.000008  -0.000065   0.000018  -0.000002
    18  H    0.000008  -0.000041   0.000011   0.000018  -0.000075   0.000017
    19  H    0.000186  -0.000011   0.000002   0.000019  -0.000004   0.000002
    20  H    0.000688   0.000191  -0.000001   0.000028  -0.000021  -0.000000
              13         14         15         16         17         18
     1  C    0.000405  -0.004732  -0.007198   0.001303  -0.000171   0.001908
     2  C   -0.015612  -0.028881  -0.017677  -0.019289   0.000893  -0.009615
     3  C    0.009002   0.013518   0.000342   0.001327  -0.000033   0.000548
     4  C    0.006921  -0.009573  -0.008453   0.014740  -0.000772   0.003479
     5  N    0.000348  -0.000594  -0.016657   0.006942   0.000947   0.001919
     6  C   -0.000144   0.000076   0.001681  -0.002260  -0.001182   0.002014
     7  C    0.000019  -0.000034  -0.001755   0.000065  -0.000884   0.000008
     8  O    0.000000  -0.000000  -0.000071   0.000024  -0.000377  -0.000041
     9  H    0.000281  -0.002151  -0.000754   0.000148  -0.000008   0.000011
    10  H    0.000073  -0.000454  -0.001791   0.000243  -0.000065   0.000018
    11  H   -0.000477   0.007932   0.008139  -0.000595   0.000018  -0.000075
    12  H    0.004740  -0.016522  -0.000738   0.000382  -0.000002   0.000017
    13  H    0.016491  -0.011087  -0.001562   0.001025  -0.000003   0.000020
    14  H   -0.011087   0.109704   0.006753  -0.001765   0.000002  -0.000021
    15  H   -0.001562   0.006753   0.108865  -0.012721   0.000090  -0.000131
    16  H    0.001025  -0.001765  -0.012721   0.015812  -0.000004   0.000069
    17  H   -0.000003   0.000002   0.000090  -0.000004   0.003280  -0.000853
    18  H    0.000020  -0.000021  -0.000131   0.000069  -0.000853  -0.004767
    19  H    0.000010  -0.000003  -0.000077  -0.000061   0.000008   0.000682
    20  H    0.000001   0.000003  -0.000939  -0.000056  -0.000023  -0.000013
              19         20
     1  C   -0.000082  -0.000136
     2  C   -0.000763  -0.000033
     3  C   -0.000042  -0.000011
     4  C    0.001018   0.000872
     5  N    0.000027   0.001357
     6  C   -0.001284   0.000071
     7  C    0.000186   0.000688
     8  O   -0.000011   0.000191
     9  H    0.000002  -0.000001
    10  H    0.000019   0.000028
    11  H   -0.000004  -0.000021
    12  H    0.000002  -0.000000
    13  H    0.000010   0.000001
    14  H   -0.000003   0.000003
    15  H   -0.000077  -0.000939
    16  H   -0.000061  -0.000056
    17  H    0.000008  -0.000023
    18  H    0.000682  -0.000013
    19  H   -0.000075  -0.000006
    20  H   -0.000006  -0.003460
 Mulliken charges and spin densities:
               1          2
     1  C   -0.438789  -0.088389
     2  C    0.004167   0.969666
     3  C   -0.437632  -0.060976
     4  C   -0.266555  -0.068771
     5  N   -0.117717   0.012657
     6  C   -0.354144   0.004618
     7  C    0.171810   0.000004
     8  O   -0.370918   0.001518
     9  H    0.150996   0.013142
    10  H    0.164647   0.010609
    11  H    0.151067   0.061516
    12  H    0.149055   0.017019
    13  H    0.141614   0.010451
    14  H    0.150754   0.062170
    15  H    0.161414   0.055345
    16  H    0.162677   0.005328
    17  H    0.185618   0.000862
    18  H    0.159785  -0.004824
    19  H    0.146903  -0.000454
    20  H    0.085247  -0.001489
 Sum of Mulliken charges =  -0.00000   1.00000
 Mulliken charges and spin densities with hydrogens summed into heavy atoms:
               1          2
     1  C    0.027922  -0.003123
     2  C    0.004167   0.969666
     3  C    0.003792   0.028663
     4  C    0.057536  -0.008099
     5  N   -0.117717   0.012657
     6  C    0.138162   0.000202
     7  C    0.257056  -0.001485
     8  O   -0.370918   0.001518
 Electronic spatial extent (au):  <R**2>=           1238.4447
 Charge=              0.0000 electrons
 Dipole moment (field-independent basis, Debye):
    X=             -3.2557    Y=              2.7084    Z=             -0.1577  Tot=              4.2379
 Quadrupole moment (field-independent basis, Debye-Ang):
   XX=            -57.3160   YY=            -54.7903   ZZ=            -48.6136
   XY=              6.9350   XZ=             -2.5070   YZ=              0.8893
 Traceless Quadrupole moment (field-independent basis, Debye-Ang):
   XX=             -3.7427   YY=             -1.2170   ZZ=              4.9597
   XY=              6.9350   XZ=             -2.5070   YZ=              0.8893
 Octapole moment (field-independent basis, Debye-Ang**2):
  XXX=             -4.1073  YYY=              1.3900  ZZZ=              8.1618  XYY=             -6.1519
  XXY=             15.7508  XXZ=             -7.2183  XZZ=              6.1659  YZZ=             -5.5046
  YYZ=              0.5910  XYZ=              3.6924
 Hexadecapole moment (field-independent basis, Debye-Ang**3):
 XXXX=          -1028.3845 YYYY=           -454.2630 ZZZZ=           -237.3184 XXXY=            207.9515
 XXXZ=            -78.6415 YYYX=            191.1929 YYYZ=             41.0721 ZZZX=            -58.7157
 ZZZY=             31.2119 XXYY=           -272.2752 XXZZ=           -197.7291 YYZZ=           -116.5518
 XXYZ=             20.5176 YYXZ=            -30.0011 ZZXY=             55.0518
 N-N= 3.847807385390D+02 E-N=-1.620607176848D+03  KE= 3.638236055119D+02
                          Isotropic Fermi Contact Couplings
        Atom                 a.u.       MegaHertz       Gauss      10(-4) cm-1
     1  C(13)             -0.02748     -30.88812     -11.02165     -10.30317
     2  C(13)              0.19296     216.92287      77.40347      72.35768
     3  C(13)             -0.03062     -34.42060     -12.28213     -11.48148
     4  C(13)             -0.03393     -38.14182     -13.60995     -12.72274
     5  N(14)              0.02129       6.88025       2.45504       2.29500
     6  C(13)              0.00159       1.78336       0.63635       0.59486
     7  C(13)             -0.00012      -0.13261      -0.04732      -0.04424
     8  O(17)              0.00029      -0.17759      -0.06337      -0.05924
     9  H(1)               0.00632      28.25319      10.08144       9.42425
    10  H(1)               0.00488      21.80092       7.77911       7.27200
    11  H(1)               0.02582     115.42374      41.18606      38.50122
    12  H(1)               0.00825      36.87209      13.15688      12.29921
    13  H(1)               0.00435      19.44449       6.93828       6.48598
    14  H(1)               0.02671     119.36821      42.59354      39.81695
    15  H(1)               0.02211      98.84538      35.27049      32.97127
    16  H(1)               0.00374      16.69904       5.95863       5.57020
    17  H(1)               0.00001       0.04923       0.01757       0.01642
    18  H(1)               0.00027       1.21169       0.43236       0.40418
    19  H(1)              -0.00016      -0.72341      -0.25813      -0.24130
    20  H(1)               0.00004       0.18583       0.06631       0.06199
 --------------------------------------------------------
       Center         ----  Spin Dipole Couplings  ----
                      3XX-RR        3YY-RR        3ZZ-RR
 --------------------------------------------------------
     1   Atom       -0.006196      0.011486     -0.005290
     2   Atom       -0.174534     -0.383898      0.558431
     3   Atom        0.003961     -0.001513     -0.002448
     4   Atom        0.006986     -0.006278     -0.000708
     5   Atom        0.016232     -0.001336     -0.014896
     6   Atom        0.009097     -0.009521      0.000425
     7   Atom        0.002228     -0.002235      0.000007
     8   Atom       -0.002203      0.003250     -0.001047
     9   Atom       -0.001985      0.002035     -0.000050
    10   Atom       -0.009125      0.015160     -0.006035
    11   Atom       -0.003823      0.010755     -0.006932
    12   Atom        0.008282     -0.001860     -0.006423
    13   Atom       -0.006270      0.013496     -0.007226
    14   Atom        0.007354     -0.002233     -0.005122
    15   Atom       -0.000035     -0.009534      0.009569
    16   Atom        0.003430     -0.004262      0.000833
    17   Atom        0.003958     -0.002096     -0.001862
    18   Atom        0.010348     -0.008258     -0.002090
    19   Atom        0.006245     -0.002653     -0.003592
    20   Atom        0.000482     -0.000228     -0.000253
 --------------------------------------------------------
                        XY            XZ            YZ
 --------------------------------------------------------
     1   Atom        0.009384     -0.001171      0.000676
     2   Atom        0.235114     -0.627715     -0.408963
     3   Atom       -0.008894     -0.006216      0.001093
     4   Atom       -0.006787      0.014343     -0.004565
     5   Atom       -0.024625     -0.000264      0.003185
     6   Atom       -0.002079      0.004254     -0.000611
     7   Atom       -0.003254      0.000289     -0.003827
     8   Atom        0.000393     -0.006405     -0.013142
     9   Atom        0.008939      0.006854      0.010354
    10   Atom       -0.003587     -0.001408      0.006323
    11   Atom        0.009250     -0.001201     -0.000562
    12   Atom       -0.010419      0.006843     -0.005089
    13   Atom       -0.008870     -0.001582      0.003165
    14   Atom       -0.008952     -0.006888      0.002896
    15   Atom       -0.000790      0.009403     -0.001909
    16   Atom        0.010038      0.009667      0.007674
    17   Atom       -0.001984     -0.001315      0.000466
    18   Atom       -0.003579     -0.008583      0.002080
    19   Atom        0.002682     -0.001080     -0.000242
    20   Atom       -0.003584      0.002087     -0.002189
 --------------------------------------------------------


 ---------------------------------------------------------------------------------
              Anisotropic Spin Dipole Couplings in Principal Axis System
 ---------------------------------------------------------------------------------

       Atom             a.u.   MegaHertz   Gauss  10(-4) cm-1        Axes

              Baa    -0.0106    -1.421    -0.507    -0.474  0.8893 -0.3856  0.2458
     1 C(13)  Bbb    -0.0050    -0.664    -0.237    -0.222 -0.2286  0.0906  0.9693
              Bcc     0.0155     2.085     0.744     0.696  0.3960  0.9182  0.0075
 
              Baa    -0.5368   -72.035   -25.704   -24.028 -0.2716  0.9422  0.1962
     2 C(13)  Bbb    -0.5349   -71.776   -25.611   -23.942  0.8378  0.1311  0.5300
              Bcc     1.0717   143.811    51.315    47.970 -0.4737 -0.3083  0.8250
 
              Baa    -0.0095    -1.278    -0.456    -0.426  0.6269  0.6341  0.4527
     3 C(13)  Bbb    -0.0032    -0.425    -0.152    -0.142 -0.0068 -0.5765  0.8171
              Bcc     0.0127     1.703     0.608     0.568  0.7791 -0.5153 -0.3571
 
              Baa    -0.0118    -1.582    -0.565    -0.528 -0.6343 -0.1535  0.7577
     4 C(13)  Bbb    -0.0087    -1.166    -0.416    -0.389  0.1324  0.9441  0.3020
              Bcc     0.0205     2.748     0.981     0.917  0.7617 -0.2919  0.5785
 
              Baa    -0.0199    -0.768    -0.274    -0.256  0.5021  0.7418 -0.4445
     5 N(14)  Bbb    -0.0138    -0.531    -0.189    -0.177  0.2880  0.3412  0.8948
              Bcc     0.0337     1.299     0.463     0.433  0.8154 -0.5773 -0.0423
 
              Baa    -0.0098    -1.309    -0.467    -0.437  0.1062  0.9942  0.0153
     6 C(13)  Bbb    -0.0013    -0.176    -0.063    -0.059 -0.3739  0.0256  0.9271
              Bcc     0.0111     1.484     0.530     0.495  0.9214 -0.1042  0.3745
 
              Baa    -0.0059    -0.789    -0.282    -0.263  0.3050  0.8053  0.5083
     7 C(13)  Bbb     0.0009     0.115     0.041     0.038 -0.6540 -0.2108  0.7265
              Bcc     0.0050     0.674     0.241     0.225  0.6923 -0.5541  0.4624
 
              Baa    -0.0141     1.022     0.365     0.341  0.3804  0.5525  0.7417
     8 O(17)  Bbb    -0.0015     0.106     0.038     0.035  0.8896 -0.4377 -0.1302
              Bcc     0.0156    -1.127    -0.402    -0.376  0.2527  0.7094 -0.6580
 
              Baa    -0.0098    -5.253    -1.875    -1.752 -0.4173  0.7549 -0.5060
     9 H(1)   Bbb    -0.0079    -4.236    -1.511    -1.413  0.7626 -0.0120 -0.6468
              Bcc     0.0178     9.489     3.386     3.165  0.4943  0.6557  0.5707
 
              Baa    -0.0098    -5.206    -1.858    -1.737  0.9702  0.0818  0.2281
    10 H(1)   Bbb    -0.0077    -4.107    -1.465    -1.370 -0.1958 -0.2899  0.9368
              Bcc     0.0175     9.313     3.323     3.107 -0.1427  0.9536  0.2652
 
              Baa    -0.0087    -4.648    -1.659    -1.551  0.8188 -0.3765  0.4334
    11 H(1)   Bbb    -0.0066    -3.510    -1.252    -1.171 -0.3718  0.2276  0.9000
              Bcc     0.0153     8.158     2.911     2.721  0.4375  0.8980 -0.0464
 
              Baa    -0.0097    -5.186    -1.851    -1.730 -0.0196  0.5249  0.8509
    12 H(1)   Bbb    -0.0081    -4.303    -1.536    -1.435  0.6060  0.6832 -0.4075
              Bcc     0.0178     9.490     3.386     3.165  0.7952 -0.5076  0.3315
 
              Baa    -0.0097    -5.189    -1.852    -1.731  0.9283  0.3317  0.1678
    13 H(1)   Bbb    -0.0077    -4.093    -1.460    -1.365 -0.1080 -0.1911  0.9756
              Bcc     0.0174     9.282     3.312     3.096 -0.3557  0.9238  0.1416
 
              Baa    -0.0087    -4.637    -1.655    -1.547  0.5529  0.4526  0.6997
    14 H(1)   Bbb    -0.0067    -3.574    -1.275    -1.192  0.1748  0.7580 -0.6284
              Bcc     0.0154     8.211     2.930     2.739  0.8147 -0.4697 -0.3399
 
              Baa    -0.0097    -5.190    -1.852    -1.731 -0.0273  0.9934  0.1116
    15 H(1)   Bbb    -0.0058    -3.076    -1.098    -1.026  0.8541  0.0812 -0.5137
              Bcc     0.0155     8.266     2.949     2.757  0.5193 -0.0813  0.8507
 
              Baa    -0.0113    -6.032    -2.152    -2.012 -0.4809  0.8617 -0.1618
    16 H(1)   Bbb    -0.0075    -3.993    -1.425    -1.332 -0.5654 -0.1638  0.8084
              Bcc     0.0188    10.025     3.577     3.344  0.6701  0.4802  0.5660
 
              Baa    -0.0027    -1.439    -0.513    -0.480  0.2610  0.9574 -0.1236
    17 H(1)   Bbb    -0.0021    -1.144    -0.408    -0.381  0.2297  0.0627  0.9712
              Bcc     0.0048     2.582     0.921     0.861  0.9376 -0.2819 -0.2036
 
              Baa    -0.0090    -4.801    -1.713    -1.601  0.1125  0.9814 -0.1557
    18 H(1)   Bbb    -0.0065    -3.442    -1.228    -1.148  0.4678  0.0859  0.8797
              Bcc     0.0154     8.243     2.941     2.750  0.8767 -0.1718 -0.4494
 
              Baa    -0.0037    -1.983    -0.708    -0.661  0.1441 -0.1406  0.9795
    19 H(1)   Bbb    -0.0034    -1.808    -0.645    -0.603 -0.2461  0.9537  0.1731
              Bcc     0.0071     3.791     1.353     1.265  0.9585  0.2660 -0.1028
 
              Baa    -0.0035    -1.867    -0.666    -0.623  0.6323  0.7668  0.1105
    20 H(1)   Bbb    -0.0019    -0.989    -0.353    -0.330 -0.4298  0.2286  0.8735
              Bcc     0.0054     2.856     1.019     0.953  0.6445 -0.5998  0.4741
 

 ---------------------------------------------------------------------------------

 DoSCS=F DFT=T ScalE2(SS,OS)=  1.000000  1.000000
 Range of M.O.s used for correlation:     1   320
 NBasis=   320 NAE=    32 NBE=    31 NFC=     0 NFV=     0
 NROrb=    320 NOA=    32 NOB=    31 NVA=   288 NVB=   289

 **** Warning!!: The largest alpha MO coefficient is  0.22331600D+02


 **** Warning!!: The largest beta MO coefficient is  0.21428904D+02

 Keep R1 and R2 ints in memory in canonical form, NReq=2822066328.
    12 initial guesses have been made.
 Convergence on wavefunction:    0.001000000000000
 Iteration     1 Dimension    12 NMult     0 NNew     12
 CISAX will form    12 AO SS matrices at one time.
 New state      1 was old state     12
 Iteration     2 Dimension    24 NMult    12 NNew     12
 Iteration     3 Dimension    27 NMult    24 NNew      3
 Iteration     4 Dimension    30 NMult    27 NNew      3
 Iteration     5 Dimension    33 NMult    30 NNew      3
 Iteration     6 Dimension    36 NMult    33 NNew      3
 Iteration     7 Dimension    39 NMult    36 NNew      3
 Iteration     8 Dimension    42 NMult    39 NNew      3
 ***********************************************************************
 Stability analysis using <AA,BB:AA,BB> singles matrix:
 ***********************************************************************
 Ground to excited state transition densities written to RWF  633

 Eigenvectors of the stability matrix:
 
 Excited state symmetry could not be determined.
 Eigenvector   1:  3.454-?Sym  Eigenvalue= 0.1416407  <S**2>=2.733
     25A -> 34A       -0.15987
     31A -> 33A       -0.10259
     31A -> 34A        0.61137
     31A -> 37A        0.17065
     24B -> 34B        0.10205
     25B -> 34B        0.12175
     31B -> 32B        0.12908
     31B -> 33B        0.16599
     31B -> 34B       -0.59231
     31B -> 37B       -0.18421
 The wavefunction is stable under the perturbations considered.
 The wavefunction is already stable.

 **********************************************************************

            Population analysis using the SCF Density.

 **********************************************************************

 Alpha  occ. eigenvalues --  -19.59179 -14.77991 -10.63505 -10.58799 -10.56753
 Alpha  occ. eigenvalues --  -10.55971 -10.54284 -10.53907  -1.16235  -1.05642
 Alpha  occ. eigenvalues --   -0.91519  -0.82210  -0.79697  -0.79094  -0.65858
 Alpha  occ. eigenvalues --   -0.63707  -0.59572  -0.56141  -0.54915  -0.52197
 Alpha  occ. eigenvalues --   -0.50534  -0.49518  -0.47845  -0.46488  -0.45544
 Alpha  occ. eigenvalues --   -0.45357  -0.45021  -0.42724  -0.42385  -0.33581
 Alpha  occ. eigenvalues --   -0.30847  -0.24681
 Alpha virt. eigenvalues --    0.05352   0.05753   0.09080   0.09764   0.10455
 Alpha virt. eigenvalues --    0.11623   0.12421   0.13594   0.14445   0.15013
 Alpha virt. eigenvalues --    0.15585   0.15828   0.17078   0.17198   0.17728
 Alpha virt. eigenvalues --    0.18689   0.20320   0.21189   0.22292   0.24093
 Alpha virt. eigenvalues --    0.25294   0.26146   0.28225   0.29407   0.30444
 Alpha virt. eigenvalues --    0.32938   0.33438   0.34725   0.36028   0.36335
 Alpha virt. eigenvalues --    0.38094   0.38496   0.39495   0.40385   0.41175
 Alpha virt. eigenvalues --    0.41903   0.42879   0.45170   0.45850   0.46072
 Alpha virt. eigenvalues --    0.46568   0.48633   0.49645   0.50068   0.51222
 Alpha virt. eigenvalues --    0.51394   0.52003   0.52614   0.53877   0.54529
 Alpha virt. eigenvalues --    0.56188   0.57304   0.58443   0.59007   0.62295
 Alpha virt. eigenvalues --    0.63999   0.64387   0.65670   0.66215   0.70168
 Alpha virt. eigenvalues --    0.72535   0.72810   0.73679   0.75290   0.79038
 Alpha virt. eigenvalues --    0.80497   0.83248   0.85149   0.86800   0.90877
 Alpha virt. eigenvalues --    0.92376   0.93965   0.95506   0.96084   0.97115
 Alpha virt. eigenvalues --    0.99262   1.00570   1.03206   1.05138   1.06445
 Alpha virt. eigenvalues --    1.08362   1.10013   1.10721   1.14084   1.14538
 Alpha virt. eigenvalues --    1.16748   1.17051   1.20158   1.24512   1.28665
 Alpha virt. eigenvalues --    1.33168   1.34696   1.36124   1.40881   1.43439
 Alpha virt. eigenvalues --    1.46823   1.47569   1.48966   1.52663   1.53853
 Alpha virt. eigenvalues --    1.54290   1.56062   1.56801   1.57623   1.58067
 Alpha virt. eigenvalues --    1.58921   1.59128   1.60972   1.61446   1.62473
 Alpha virt. eigenvalues --    1.63490   1.64528   1.65449   1.67228   1.69847
 Alpha virt. eigenvalues --    1.70858   1.72347   1.75137   1.76562   1.78786
 Alpha virt. eigenvalues --    1.81678   1.86120   1.89157   1.91068   1.92088
 Alpha virt. eigenvalues --    1.95643   1.97219   1.97384   1.99347   2.01387
 Alpha virt. eigenvalues --    2.03519   2.04505   2.06698   2.07380   2.09366
 Alpha virt. eigenvalues --    2.12457   2.13799   2.17000   2.18713   2.19901
 Alpha virt. eigenvalues --    2.20802   2.25002   2.25528   2.28410   2.31187
 Alpha virt. eigenvalues --    2.32006   2.33936   2.35856   2.37093   2.38312
 Alpha virt. eigenvalues --    2.40564   2.41256   2.42817   2.44949   2.46705
 Alpha virt. eigenvalues --    2.46954   2.48634   2.51840   2.52711   2.53398
 Alpha virt. eigenvalues --    2.54680   2.55034   2.56926   2.57797   2.59217
 Alpha virt. eigenvalues --    2.60773   2.63192   2.63678   2.67149   2.69322
 Alpha virt. eigenvalues --    2.75155   2.77117   2.79836   2.81067   2.81538
 Alpha virt. eigenvalues --    2.83869   2.85419   2.89452   2.91393   2.93187
 Alpha virt. eigenvalues --    2.95769   2.97910   2.99225   3.01340   3.03988
 Alpha virt. eigenvalues --    3.04774   3.06672   3.08044   3.09622   3.10370
 Alpha virt. eigenvalues --    3.11892   3.13967   3.14971   3.16465   3.17543
 Alpha virt. eigenvalues --    3.19356   3.21269   3.22015   3.23465   3.24766
 Alpha virt. eigenvalues --    3.25497   3.28829   3.29584   3.31064   3.32284
 Alpha virt. eigenvalues --    3.34355   3.34753   3.35393   3.37950   3.39605
 Alpha virt. eigenvalues --    3.41503   3.42465   3.43995   3.46856   3.53550
 Alpha virt. eigenvalues --    3.54394   3.56154   3.57950   3.61140   3.62207
 Alpha virt. eigenvalues --    3.64215   3.66379   3.68363   3.72922   3.73814
 Alpha virt. eigenvalues --    3.76072   3.78915   3.80169   3.82274   3.86243
 Alpha virt. eigenvalues --    3.94272   3.96057   3.97636   3.99617   4.01326
 Alpha virt. eigenvalues --    4.06248   4.07313   4.09903   4.14169   4.15426
 Alpha virt. eigenvalues --    4.21162   4.21944   4.30202   4.33342   4.34245
 Alpha virt. eigenvalues --    4.39072   4.41779   4.42391   4.44125   4.47855
 Alpha virt. eigenvalues --    4.53017   4.61068   4.70341   4.72053   4.80418
 Alpha virt. eigenvalues --    4.86069   4.94838   4.96503   5.00501   5.10398
 Alpha virt. eigenvalues --    5.17800   5.19119   5.23593   5.27095   5.28162
 Alpha virt. eigenvalues --    5.29153   5.52062   5.57151   5.63750   5.67297
 Alpha virt. eigenvalues --    5.72593   5.84546   6.12215   6.38542   6.39767
 Alpha virt. eigenvalues --    6.48249   6.60110   6.81383   6.99263   7.08980
 Alpha virt. eigenvalues --   22.37634  22.46054  22.50844  22.62711  22.74245
 Alpha virt. eigenvalues --   23.18330  32.91116  43.97675
  Beta  occ. eigenvalues --  -19.59175 -14.77965 -10.63504 -10.58864 -10.56747
  Beta  occ. eigenvalues --  -10.55259 -10.54347 -10.53965  -1.16220  -1.05500
  Beta  occ. eigenvalues --   -0.89634  -0.82045  -0.79364  -0.78909  -0.65386
  Beta  occ. eigenvalues --   -0.62363  -0.58907  -0.55685  -0.54389  -0.50311
  Beta  occ. eigenvalues --   -0.50173  -0.49042  -0.47462  -0.45790  -0.45406
  Beta  occ. eigenvalues --   -0.45036  -0.44804  -0.42307  -0.41903  -0.33479
  Beta  occ. eigenvalues --   -0.30675
  Beta virt. eigenvalues --   -0.01388   0.04942   0.05735   0.08795   0.09241
  Beta virt. eigenvalues --    0.10113   0.11419   0.11981   0.13470   0.14160
  Beta virt. eigenvalues --    0.14877   0.15627   0.15929   0.16888   0.17549
  Beta virt. eigenvalues --    0.17720   0.18447   0.20222   0.21072   0.21784
  Beta virt. eigenvalues --    0.24116   0.25092   0.25844   0.28258   0.29378
  Beta virt. eigenvalues --    0.30387   0.32734   0.33775   0.35202   0.36259
  Beta virt. eigenvalues --    0.37149   0.37999   0.38789   0.39586   0.40594
  Beta virt. eigenvalues --    0.40974   0.41974   0.43053   0.45156   0.45892
  Beta virt. eigenvalues --    0.46034   0.46644   0.48067   0.49530   0.49941
  Beta virt. eigenvalues --    0.51245   0.51572   0.52206   0.52481   0.53970
  Beta virt. eigenvalues --    0.55123   0.56244   0.57542   0.58882   0.59256
  Beta virt. eigenvalues --    0.62336   0.64016   0.64301   0.65639   0.66389
  Beta virt. eigenvalues --    0.70264   0.72595   0.73280   0.73713   0.75361
  Beta virt. eigenvalues --    0.79012   0.80706   0.83664   0.85388   0.87009
  Beta virt. eigenvalues --    0.90960   0.92418   0.93990   0.95672   0.95970
  Beta virt. eigenvalues --    0.97189   0.99397   1.00862   1.03431   1.05219
  Beta virt. eigenvalues --    1.06632   1.08487   1.10353   1.10781   1.14147
  Beta virt. eigenvalues --    1.14753   1.16924   1.17401   1.20257   1.25701
  Beta virt. eigenvalues --    1.29599   1.34250   1.35188   1.36853   1.41236
  Beta virt. eigenvalues --    1.43631   1.46940   1.47721   1.49176   1.52913
  Beta virt. eigenvalues --    1.54121   1.54464   1.56867   1.57208   1.57936
  Beta virt. eigenvalues --    1.58178   1.59048   1.59979   1.61021   1.61368
  Beta virt. eigenvalues --    1.62703   1.63497   1.64586   1.65469   1.67333
  Beta virt. eigenvalues --    1.70385   1.70929   1.72589   1.75346   1.77373
  Beta virt. eigenvalues --    1.78829   1.82225   1.86503   1.89532   1.91137
  Beta virt. eigenvalues --    1.92806   1.96314   1.97511   1.97764   2.00087
  Beta virt. eigenvalues --    2.01893   2.04472   2.04832   2.07045   2.07567
  Beta virt. eigenvalues --    2.09649   2.12671   2.14077   2.17717   2.19185
  Beta virt. eigenvalues --    2.20256   2.21240   2.25331   2.25854   2.28646
  Beta virt. eigenvalues --    2.31543   2.32278   2.34204   2.36163   2.37579
  Beta virt. eigenvalues --    2.38774   2.40890   2.41462   2.43230   2.45635
  Beta virt. eigenvalues --    2.46995   2.47297   2.49701   2.52246   2.52984
  Beta virt. eigenvalues --    2.53638   2.55198   2.55771   2.57021   2.57997
  Beta virt. eigenvalues --    2.59389   2.61347   2.63537   2.64291   2.67420
  Beta virt. eigenvalues --    2.69763   2.75640   2.77975   2.80444   2.81567
  Beta virt. eigenvalues --    2.81757   2.84291   2.85863   2.89779   2.93545
  Beta virt. eigenvalues --    2.95395   2.97346   2.98333   3.01731   3.02766
  Beta virt. eigenvalues --    3.04935   3.05232   3.06826   3.09202   3.09918
  Beta virt. eigenvalues --    3.10691   3.13027   3.14231   3.15362   3.16773
  Beta virt. eigenvalues --    3.18159   3.21048   3.21677   3.23353   3.24296
  Beta virt. eigenvalues --    3.25334   3.26196   3.29266   3.30034   3.31109
  Beta virt. eigenvalues --    3.33356   3.34909   3.35128   3.36399   3.38421
  Beta virt. eigenvalues --    3.40419   3.41930   3.43223   3.44413   3.47307
  Beta virt. eigenvalues --    3.53637   3.54659   3.56954   3.58168   3.62471
  Beta virt. eigenvalues --    3.63597   3.65694   3.66783   3.69253   3.73628
  Beta virt. eigenvalues --    3.74273   3.76694   3.80332   3.81065   3.83905
  Beta virt. eigenvalues --    3.88217   3.95474   3.97311   3.98883   4.00922
  Beta virt. eigenvalues --    4.02539   4.06833   4.08842   4.10684   4.14671
  Beta virt. eigenvalues --    4.17260   4.22095   4.22245   4.31280   4.34723
  Beta virt. eigenvalues --    4.35353   4.40613   4.42733   4.43503   4.44524
  Beta virt. eigenvalues --    4.49161   4.54501   4.62622   4.75857   4.76911
  Beta virt. eigenvalues --    4.82349   4.87103   4.96000   5.01106   5.02545
  Beta virt. eigenvalues --    5.11217   5.18018   5.19328   5.24331   5.27189
  Beta virt. eigenvalues --    5.28397   5.29674   5.52137   5.57255   5.63961
  Beta virt. eigenvalues --    5.67324   5.72723   5.84619   6.12215   6.38543
  Beta virt. eigenvalues --    6.39770   6.48254   6.60119   6.81370   6.99279
  Beta virt. eigenvalues --    7.08975  22.37903  22.46098  22.50855  22.63222
  Beta virt. eigenvalues --   22.75084  23.18334  32.91132  43.97674
          Condensed to atoms (all electrons):
               1          2          3          4          5          6
     1  C    5.147359   0.149800  -0.064784  -0.052287   0.043295  -0.006226
     2  C    0.149800   6.014055   0.287877   0.114030  -0.144600   0.017376
     3  C   -0.064784   0.287877   5.047642  -0.078708   0.007888   0.000311
     4  C   -0.052287   0.114030  -0.078708   5.269072   0.273501  -0.070884
     5  N    0.043295  -0.144600   0.007888   0.273501   6.889971   0.210631
     6  C   -0.006226   0.017376   0.000311  -0.070884   0.210631   5.017522
     7  C   -0.002319  -0.002145  -0.000829  -0.045014   0.301921  -0.046585
     8  O   -0.000892   0.000540   0.000002   0.002345  -0.125493  -0.013472
     9  H    0.421030  -0.053079  -0.010919   0.013267   0.000015  -0.000280
    10  H    0.430517  -0.051083   0.008822  -0.015099   0.007771  -0.000216
    11  H    0.380665  -0.034659  -0.002237  -0.007046  -0.003465   0.000361
    12  H   -0.010483  -0.052273   0.419899   0.014586  -0.000333  -0.000012
    13  H    0.011440  -0.051531   0.415456  -0.005816   0.000342  -0.000223
    14  H   -0.008127  -0.043752   0.404435  -0.011695  -0.000648   0.000116
    15  H   -0.007845  -0.040440   0.002987   0.393613  -0.049092   0.009115
    16  H    0.013313  -0.119011  -0.000923   0.473216  -0.036667  -0.007168
    17  H   -0.000049  -0.000541  -0.000047   0.009161  -0.034319   0.405629
    18  H   -0.007888   0.028460   0.001405  -0.027020  -0.049226   0.421080
    19  H    0.001599  -0.015581  -0.000499   0.008704  -0.041997   0.407943
    20  H    0.000672  -0.007609  -0.000147   0.008629  -0.131776   0.009128
               7          8          9         10         11         12
     1  C   -0.002319  -0.000892   0.421030   0.430517   0.380665  -0.010483
     2  C   -0.002145   0.000540  -0.053079  -0.051083  -0.034659  -0.052273
     3  C   -0.000829   0.000002  -0.010919   0.008822  -0.002237   0.419899
     4  C   -0.045014   0.002345   0.013267  -0.015099  -0.007046   0.014586
     5  N    0.301921  -0.125493   0.000015   0.007771  -0.003465  -0.000333
     6  C   -0.046585  -0.013472  -0.000280  -0.000216   0.000361  -0.000012
     7  C    4.555962   0.647743   0.000054  -0.002932   0.000050   0.000009
     8  O    0.647743   7.890939   0.000002   0.000199   0.000020  -0.000000
     9  H    0.000054   0.000002   0.527974  -0.019764  -0.031281   0.004475
    10  H   -0.002932   0.000199  -0.019764   0.510805  -0.030909   0.000243
    11  H    0.000050   0.000020  -0.031281  -0.030909   0.564913  -0.001214
    12  H    0.000009  -0.000000   0.004475   0.000243  -0.001214   0.532320
    13  H    0.000000   0.000000   0.000172  -0.000252  -0.000642  -0.019532
    14  H    0.000003  -0.000000  -0.001200  -0.000588   0.007130  -0.035724
    15  H   -0.013550   0.000215  -0.001014  -0.000608   0.007458  -0.000936
    16  H    0.002772   0.000048  -0.000123   0.000020  -0.000733  -0.000203
    17  H   -0.015106   0.022477  -0.000016  -0.000360   0.000030  -0.000004
    18  H    0.004005   0.000874  -0.000261  -0.000670   0.000144   0.000142
    19  H    0.003048   0.000723   0.000015   0.000039  -0.000019  -0.000014
    20  H    0.441102  -0.055354  -0.000062  -0.000583   0.000368  -0.000002
              13         14         15         16         17         18
     1  C    0.011440  -0.008127  -0.007845   0.013313  -0.000049  -0.007888
     2  C   -0.051531  -0.043752  -0.040440  -0.119011  -0.000541   0.028460
     3  C    0.415456   0.404435   0.002987  -0.000923  -0.000047   0.001405
     4  C   -0.005816  -0.011695   0.393613   0.473216   0.009161  -0.027020
     5  N    0.000342  -0.000648  -0.049092  -0.036667  -0.034319  -0.049226
     6  C   -0.000223   0.000116   0.009115  -0.007168   0.405629   0.421080
     7  C    0.000000   0.000003  -0.013550   0.002772  -0.015106   0.004005
     8  O    0.000000  -0.000000   0.000215   0.000048   0.022477   0.000874
     9  H    0.000172  -0.001200  -0.001014  -0.000123  -0.000016  -0.000261
    10  H   -0.000252  -0.000588  -0.000608   0.000020  -0.000360  -0.000670
    11  H   -0.000642   0.007130   0.007458  -0.000733   0.000030   0.000144
    12  H   -0.019532  -0.035724  -0.000936  -0.000203  -0.000004   0.000142
    13  H    0.538519  -0.032839  -0.000382   0.003572  -0.000006  -0.000011
    14  H   -0.032839   0.567241   0.005809  -0.000875   0.000003  -0.000040
    15  H   -0.000382   0.005809   0.554253  -0.024530  -0.000031  -0.000240
    16  H    0.003572  -0.000875  -0.024530   0.529833   0.000058  -0.002269
    17  H   -0.000006   0.000003  -0.000031   0.000058   0.465138  -0.022394
    18  H   -0.000011  -0.000040  -0.000240  -0.002269  -0.022394   0.534927
    19  H    0.000110   0.000002  -0.000076   0.005726  -0.017855  -0.040618
    20  H    0.000010  -0.000002   0.003881   0.001266   0.002611  -0.000187
              19         20
     1  C    0.001599   0.000672
     2  C   -0.015581  -0.007609
     3  C   -0.000499  -0.000147
     4  C    0.008704   0.008629
     5  N   -0.041997  -0.131776
     6  C    0.407943   0.009128
     7  C    0.003048   0.441102
     8  O    0.000723  -0.055354
     9  H    0.000015  -0.000062
    10  H    0.000039  -0.000583
    11  H   -0.000019   0.000368
    12  H   -0.000014  -0.000002
    13  H    0.000110   0.000010
    14  H    0.000002  -0.000002
    15  H   -0.000076   0.003881
    16  H    0.005726   0.001266
    17  H   -0.017855   0.002611
    18  H   -0.040618  -0.000187
    19  H    0.541966  -0.000119
    20  H   -0.000119   0.642929
          Atomic-Atomic Spin Densities.
               1          2          3          4          5          6
     1  C   -0.062023  -0.092353   0.013123   0.021683   0.007211   0.000803
     2  C   -0.092353   1.386828  -0.051327  -0.065064  -0.037198  -0.001281
     3  C    0.013123  -0.051327  -0.076643   0.014327  -0.000477   0.000605
     4  C    0.021683  -0.065064   0.014327  -0.069728   0.015665   0.005369
     5  N    0.007211  -0.037198  -0.000477   0.015665   0.041928  -0.004917
     6  C    0.000803  -0.001281   0.000605   0.005369  -0.004917   0.004461
     7  C   -0.000479   0.001923   0.000103   0.000828  -0.005186   0.000420
     8  O    0.000066  -0.000273  -0.000001   0.000061   0.000241   0.000205
     9  H    0.016870  -0.021394   0.002007   0.001911   0.000425   0.000025
    10  H    0.012007  -0.013009   0.000260   0.001412   0.002555  -0.000102
    11  H   -0.001753  -0.024168  -0.000507  -0.006155  -0.002067   0.000080
    12  H    0.005160  -0.022042   0.012901   0.002689   0.000188  -0.000022
    13  H    0.000405  -0.015612   0.009002   0.006921   0.000348  -0.000144
    14  H   -0.004732  -0.028881   0.013518  -0.009573  -0.000594   0.000076
    15  H   -0.007198  -0.017677   0.000342  -0.008453  -0.016657   0.001681
    16  H    0.001303  -0.019289   0.001327   0.014740   0.006942  -0.002260
    17  H   -0.000171   0.000893  -0.000033  -0.000772   0.000947  -0.001182
    18  H    0.001908  -0.009615   0.000548   0.003479   0.001919   0.002014
    19  H   -0.000082  -0.000763  -0.000042   0.001018   0.000027  -0.001284
    20  H   -0.000136  -0.000033  -0.000011   0.000872   0.001357   0.000071
               7          8          9         10         11         12
     1  C   -0.000479   0.000066   0.016870   0.012007  -0.001753   0.005160
     2  C    0.001923  -0.000273  -0.021394  -0.013009  -0.024168  -0.022042
     3  C    0.000103  -0.000001   0.002007   0.000260  -0.000507   0.012901
     4  C    0.000828   0.000061   0.001911   0.001412  -0.006155   0.002689
     5  N   -0.005186   0.000241   0.000425   0.002555  -0.002067   0.000188
     6  C    0.000420   0.000205   0.000025  -0.000102   0.000080  -0.000022
     7  C    0.005796  -0.001532  -0.000017   0.000068  -0.000217   0.000003
     8  O   -0.001532   0.003012   0.000001   0.000024  -0.000001   0.000000
     9  H   -0.000017   0.000001   0.023937   0.003899  -0.014348   0.002297
    10  H    0.000068   0.000024   0.003899   0.016231  -0.011114   0.000306
    11  H   -0.000217  -0.000001  -0.014348  -0.011114   0.109218  -0.002370
    12  H    0.000003   0.000000   0.002297   0.000306  -0.002370   0.030032
    13  H    0.000019   0.000000   0.000281   0.000073  -0.000477   0.004740
    14  H   -0.000034  -0.000000  -0.002151  -0.000454   0.007932  -0.016522
    15  H   -0.001755  -0.000071  -0.000754  -0.001791   0.008139  -0.000738
    16  H    0.000065   0.000024   0.000148   0.000243  -0.000595   0.000382
    17  H   -0.000884  -0.000377  -0.000008  -0.000065   0.000018  -0.000002
    18  H    0.000008  -0.000041   0.000011   0.000018  -0.000075   0.000017
    19  H    0.000186  -0.000011   0.000002   0.000019  -0.000004   0.000002
    20  H    0.000688   0.000191  -0.000001   0.000028  -0.000021  -0.000000
              13         14         15         16         17         18
     1  C    0.000405  -0.004732  -0.007198   0.001303  -0.000171   0.001908
     2  C   -0.015612  -0.028881  -0.017677  -0.019289   0.000893  -0.009615
     3  C    0.009002   0.013518   0.000342   0.001327  -0.000033   0.000548
     4  C    0.006921  -0.009573  -0.008453   0.014740  -0.000772   0.003479
     5  N    0.000348  -0.000594  -0.016657   0.006942   0.000947   0.001919
     6  C   -0.000144   0.000076   0.001681  -0.002260  -0.001182   0.002014
     7  C    0.000019  -0.000034  -0.001755   0.000065  -0.000884   0.000008
     8  O    0.000000  -0.000000  -0.000071   0.000024  -0.000377  -0.000041
     9  H    0.000281  -0.002151  -0.000754   0.000148  -0.000008   0.000011
    10  H    0.000073  -0.000454  -0.001791   0.000243  -0.000065   0.000018
    11  H   -0.000477   0.007932   0.008139  -0.000595   0.000018  -0.000075
    12  H    0.004740  -0.016522  -0.000738   0.000382  -0.000002   0.000017
    13  H    0.016491  -0.011087  -0.001562   0.001025  -0.000003   0.000020
    14  H   -0.011087   0.109704   0.006753  -0.001765   0.000002  -0.000021
    15  H   -0.001562   0.006753   0.108865  -0.012721   0.000090  -0.000131
    16  H    0.001025  -0.001765  -0.012721   0.015812  -0.000004   0.000069
    17  H   -0.000003   0.000002   0.000090  -0.000004   0.003280  -0.000853
    18  H    0.000020  -0.000021  -0.000131   0.000069  -0.000853  -0.004767
    19  H    0.000010  -0.000003  -0.000077  -0.000061   0.000008   0.000682
    20  H    0.000001   0.000003  -0.000939  -0.000056  -0.000023  -0.000013
              19         20
     1  C   -0.000082  -0.000136
     2  C   -0.000763  -0.000033
     3  C   -0.000042  -0.000011
     4  C    0.001018   0.000872
     5  N    0.000027   0.001357
     6  C   -0.001284   0.000071
     7  C    0.000186   0.000688
     8  O   -0.000011   0.000191
     9  H    0.000002  -0.000001
    10  H    0.000019   0.000028
    11  H   -0.000004  -0.000021
    12  H    0.000002  -0.000000
    13  H    0.000010   0.000001
    14  H   -0.000003   0.000003
    15  H   -0.000077  -0.000939
    16  H   -0.000061  -0.000056
    17  H    0.000008  -0.000023
    18  H    0.000682  -0.000013
    19  H   -0.000075  -0.000006
    20  H   -0.000006  -0.003460
 Mulliken charges and spin densities:
               1          2
     1  C   -0.438789  -0.088389
     2  C    0.004167   0.969666
     3  C   -0.437632  -0.060976
     4  C   -0.266555  -0.068771
     5  N   -0.117717   0.012657
     6  C   -0.354144   0.004618
     7  C    0.171810   0.000004
     8  O   -0.370918   0.001518
     9  H    0.150996   0.013142
    10  H    0.164647   0.010609
    11  H    0.151067   0.061516
    12  H    0.149055   0.017019
    13  H    0.141614   0.010451
    14  H    0.150754   0.062170
    15  H    0.161414   0.055345
    16  H    0.162677   0.005328
    17  H    0.185618   0.000862
    18  H    0.159785  -0.004824
    19  H    0.146903  -0.000454
    20  H    0.085247  -0.001489
 Sum of Mulliken charges =  -0.00000   1.00000
 Mulliken charges and spin densities with hydrogens summed into heavy atoms:
               1          2
     1  C    0.027922  -0.003123
     2  C    0.004167   0.969666
     3  C    0.003792   0.028663
     4  C    0.057536  -0.008099
     5  N   -0.117717   0.012657
     6  C    0.138162   0.000202
     7  C    0.257056  -0.001485
     8  O   -0.370918   0.001518
 Electronic spatial extent (au):  <R**2>=           1238.4447
 Charge=              0.0000 electrons
 Dipole moment (field-independent basis, Debye):
    X=             -3.2557    Y=              2.7084    Z=             -0.1577  Tot=              4.2379
 Quadrupole moment (field-independent basis, Debye-Ang):
   XX=            -57.3160   YY=            -54.7903   ZZ=            -48.6136
   XY=              6.9350   XZ=             -2.5070   YZ=              0.8893
 Traceless Quadrupole moment (field-independent basis, Debye-Ang):
   XX=             -3.7427   YY=             -1.2170   ZZ=              4.9597
   XY=              6.9350   XZ=             -2.5070   YZ=              0.8893
 Octapole moment (field-independent basis, Debye-Ang**2):
  XXX=             -4.1073  YYY=              1.3900  ZZZ=              8.1618  XYY=             -6.1519
  XXY=             15.7508  XXZ=             -7.2183  XZZ=              6.1659  YZZ=             -5.5046
  YYZ=              0.5910  XYZ=              3.6924
 Hexadecapole moment (field-independent basis, Debye-Ang**3):
 XXXX=          -1028.3845 YYYY=           -454.2630 ZZZZ=           -237.3184 XXXY=            207.9515
 XXXZ=            -78.6415 YYYX=            191.1929 YYYZ=             41.0721 ZZZX=            -58.7157
 ZZZY=             31.2119 XXYY=           -272.2752 XXZZ=           -197.7291 YYZZ=           -116.5518
 XXYZ=             20.5176 YYXZ=            -30.0011 ZZXY=             55.0518
 N-N= 3.847807385390D+02 E-N=-1.620607176848D+03  KE= 3.638236055119D+02
                          Isotropic Fermi Contact Couplings
        Atom                 a.u.       MegaHertz       Gauss      10(-4) cm-1
     1  C(13)             -0.02748     -30.88812     -11.02165     -10.30317
     2  C(13)              0.19296     216.92287      77.40347      72.35768
     3  C(13)             -0.03062     -34.42060     -12.28213     -11.48148
     4  C(13)             -0.03393     -38.14182     -13.60995     -12.72274
     5  N(14)              0.02129       6.88025       2.45504       2.29500
     6  C(13)              0.00159       1.78336       0.63635       0.59486
     7  C(13)             -0.00012      -0.13261      -0.04732      -0.04424
     8  O(17)              0.00029      -0.17759      -0.06337      -0.05924
     9  H(1)               0.00632      28.25319      10.08144       9.42425
    10  H(1)               0.00488      21.80092       7.77911       7.27200
    11  H(1)               0.02582     115.42374      41.18606      38.50122
    12  H(1)               0.00825      36.87209      13.15688      12.29921
    13  H(1)               0.00435      19.44449       6.93828       6.48598
    14  H(1)               0.02671     119.36821      42.59354      39.81695
    15  H(1)               0.02211      98.84538      35.27049      32.97127
    16  H(1)               0.00374      16.69904       5.95863       5.57020
    17  H(1)               0.00001       0.04923       0.01757       0.01642
    18  H(1)               0.00027       1.21169       0.43236       0.40418
    19  H(1)              -0.00016      -0.72341      -0.25813      -0.24130
    20  H(1)               0.00004       0.18583       0.06631       0.06199
 --------------------------------------------------------
       Center         ----  Spin Dipole Couplings  ----
                      3XX-RR        3YY-RR        3ZZ-RR
 --------------------------------------------------------
     1   Atom       -0.006196      0.011486     -0.005290
     2   Atom       -0.174534     -0.383898      0.558431
     3   Atom        0.003961     -0.001513     -0.002448
     4   Atom        0.006986     -0.006278     -0.000708
     5   Atom        0.016232     -0.001336     -0.014896
     6   Atom        0.009097     -0.009521      0.000425
     7   Atom        0.002228     -0.002235      0.000007
     8   Atom       -0.002203      0.003250     -0.001047
     9   Atom       -0.001985      0.002035     -0.000050
    10   Atom       -0.009125      0.015160     -0.006035
    11   Atom       -0.003823      0.010755     -0.006932
    12   Atom        0.008282     -0.001860     -0.006423
    13   Atom       -0.006270      0.013496     -0.007226
    14   Atom        0.007354     -0.002233     -0.005122
    15   Atom       -0.000035     -0.009534      0.009569
    16   Atom        0.003430     -0.004262      0.000833
    17   Atom        0.003958     -0.002096     -0.001862
    18   Atom        0.010348     -0.008258     -0.002090
    19   Atom        0.006245     -0.002653     -0.003592
    20   Atom        0.000482     -0.000228     -0.000253
 --------------------------------------------------------
                        XY            XZ            YZ
 --------------------------------------------------------
     1   Atom        0.009384     -0.001171      0.000676
     2   Atom        0.235114     -0.627715     -0.408963
     3   Atom       -0.008894     -0.006216      0.001093
     4   Atom       -0.006787      0.014343     -0.004565
     5   Atom       -0.024625     -0.000264      0.003185
     6   Atom       -0.002079      0.004254     -0.000611
     7   Atom       -0.003254      0.000289     -0.003827
     8   Atom        0.000393     -0.006405     -0.013142
     9   Atom        0.008939      0.006854      0.010354
    10   Atom       -0.003587     -0.001408      0.006323
    11   Atom        0.009250     -0.001201     -0.000562
    12   Atom       -0.010419      0.006843     -0.005089
    13   Atom       -0.008870     -0.001582      0.003165
    14   Atom       -0.008952     -0.006888      0.002896
    15   Atom       -0.000790      0.009403     -0.001909
    16   Atom        0.010038      0.009667      0.007674
    17   Atom       -0.001984     -0.001315      0.000466
    18   Atom       -0.003579     -0.008583      0.002080
    19   Atom        0.002682     -0.001080     -0.000242
    20   Atom       -0.003584      0.002087     -0.002189
 --------------------------------------------------------


 ---------------------------------------------------------------------------------
              Anisotropic Spin Dipole Couplings in Principal Axis System
 ---------------------------------------------------------------------------------

       Atom             a.u.   MegaHertz   Gauss  10(-4) cm-1        Axes

              Baa    -0.0106    -1.421    -0.507    -0.474  0.8893 -0.3856  0.2458
     1 C(13)  Bbb    -0.0050    -0.664    -0.237    -0.222 -0.2286  0.0906  0.9693
              Bcc     0.0155     2.085     0.744     0.696  0.3960  0.9182  0.0075
 
              Baa    -0.5368   -72.035   -25.704   -24.028 -0.2716  0.9422  0.1962
     2 C(13)  Bbb    -0.5349   -71.776   -25.611   -23.942  0.8378  0.1311  0.5300
              Bcc     1.0717   143.811    51.315    47.970 -0.4737 -0.3083  0.8250
 
              Baa    -0.0095    -1.278    -0.456    -0.426  0.6269  0.6341  0.4527
     3 C(13)  Bbb    -0.0032    -0.425    -0.152    -0.142 -0.0068 -0.5765  0.8171
              Bcc     0.0127     1.703     0.608     0.568  0.7791 -0.5153 -0.3571
 
              Baa    -0.0118    -1.582    -0.565    -0.528 -0.6343 -0.1535  0.7577
     4 C(13)  Bbb    -0.0087    -1.166    -0.416    -0.389  0.1324  0.9441  0.3020
              Bcc     0.0205     2.748     0.981     0.917  0.7617 -0.2919  0.5785
 
              Baa    -0.0199    -0.768    -0.274    -0.256  0.5021  0.7418 -0.4445
     5 N(14)  Bbb    -0.0138    -0.531    -0.189    -0.177  0.2880  0.3412  0.8948
              Bcc     0.0337     1.299     0.463     0.433  0.8154 -0.5773 -0.0423
 
              Baa    -0.0098    -1.309    -0.467    -0.437  0.1062  0.9942  0.0153
     6 C(13)  Bbb    -0.0013    -0.176    -0.063    -0.059 -0.3739  0.0256  0.9271
              Bcc     0.0111     1.484     0.530     0.495  0.9214 -0.1042  0.3745
 
              Baa    -0.0059    -0.789    -0.282    -0.263  0.3050  0.8053  0.5083
     7 C(13)  Bbb     0.0009     0.115     0.041     0.038 -0.6540 -0.2108  0.7265
              Bcc     0.0050     0.674     0.241     0.225  0.6923 -0.5541  0.4624
 
              Baa    -0.0141     1.022     0.365     0.341  0.3804  0.5525  0.7417
     8 O(17)  Bbb    -0.0015     0.106     0.038     0.035  0.8896 -0.4377 -0.1302
              Bcc     0.0156    -1.127    -0.402    -0.376  0.2527  0.7094 -0.6580
 
              Baa    -0.0098    -5.253    -1.875    -1.752 -0.4173  0.7549 -0.5060
     9 H(1)   Bbb    -0.0079    -4.236    -1.511    -1.413  0.7626 -0.0120 -0.6468
              Bcc     0.0178     9.489     3.386     3.165  0.4943  0.6557  0.5707
 
              Baa    -0.0098    -5.206    -1.858    -1.737  0.9702  0.0818  0.2281
    10 H(1)   Bbb    -0.0077    -4.107    -1.465    -1.370 -0.1958 -0.2899  0.9368
              Bcc     0.0175     9.313     3.323     3.107 -0.1427  0.9536  0.2652
 
              Baa    -0.0087    -4.648    -1.659    -1.551  0.8188 -0.3765  0.4334
    11 H(1)   Bbb    -0.0066    -3.510    -1.252    -1.171 -0.3718  0.2276  0.9000
              Bcc     0.0153     8.158     2.911     2.721  0.4375  0.8980 -0.0464
 
              Baa    -0.0097    -5.186    -1.851    -1.730 -0.0196  0.5249  0.8509
    12 H(1)   Bbb    -0.0081    -4.303    -1.536    -1.435  0.6060  0.6832 -0.4075
              Bcc     0.0178     9.490     3.386     3.165  0.7952 -0.5076  0.3315
 
              Baa    -0.0097    -5.189    -1.852    -1.731  0.9283  0.3317  0.1678
    13 H(1)   Bbb    -0.0077    -4.093    -1.460    -1.365 -0.1080 -0.1911  0.9756
              Bcc     0.0174     9.282     3.312     3.096 -0.3557  0.9238  0.1416
 
              Baa    -0.0087    -4.637    -1.655    -1.547  0.5529  0.4526  0.6997
    14 H(1)   Bbb    -0.0067    -3.574    -1.275    -1.192  0.1748  0.7580 -0.6284
              Bcc     0.0154     8.211     2.930     2.739  0.8147 -0.4697 -0.3399
 
              Baa    -0.0097    -5.190    -1.852    -1.731 -0.0273  0.9934  0.1116
    15 H(1)   Bbb    -0.0058    -3.076    -1.098    -1.026  0.8541  0.0812 -0.5137
              Bcc     0.0155     8.266     2.949     2.757  0.5193 -0.0813  0.8507
 
              Baa    -0.0113    -6.032    -2.152    -2.012 -0.4809  0.8617 -0.1618
    16 H(1)   Bbb    -0.0075    -3.993    -1.425    -1.332 -0.5654 -0.1638  0.8084
              Bcc     0.0188    10.025     3.577     3.344  0.6701  0.4802  0.5660
 
              Baa    -0.0027    -1.439    -0.513    -0.480  0.2610  0.9574 -0.1236
    17 H(1)   Bbb    -0.0021    -1.144    -0.408    -0.381  0.2297  0.0627  0.9712
              Bcc     0.0048     2.582     0.921     0.861  0.9376 -0.2819 -0.2036
 
              Baa    -0.0090    -4.801    -1.713    -1.601  0.1125  0.9814 -0.1557
    18 H(1)   Bbb    -0.0065    -3.442    -1.228    -1.148  0.4678  0.0859  0.8797
              Bcc     0.0154     8.243     2.941     2.750  0.8767 -0.1718 -0.4494
 
              Baa    -0.0037    -1.983    -0.708    -0.661  0.1441 -0.1406  0.9795
    19 H(1)   Bbb    -0.0034    -1.808    -0.645    -0.603 -0.2461  0.9537  0.1731
              Bcc     0.0071     3.791     1.353     1.265  0.9585  0.2660 -0.1028
 
              Baa    -0.0035    -1.867    -0.666    -0.623  0.6323  0.7668  0.1105
    20 H(1)   Bbb    -0.0019    -0.989    -0.353    -0.330 -0.4298  0.2286  0.8735
              Bcc     0.0054     2.856     1.019     0.953  0.6445 -0.5998  0.4741
 

 ---------------------------------------------------------------------------------

 Unable to Open any file for archive entry.
 1\1\GINC-R1I3N10\Stability\UM062X\def2TZVP\C6H12N1O1(2)\UZG38MN\11-Sep
 -2023\0\\# um062x Def2TZVP stable=opt NoSymm\\p0_C6H12NO_sp_g16\\0,2\C
 ,0,-1.85945841,-0.71904141,-0.78053841\C,0,-1.48224841,0.63420359,-0.2
 7776041\C,0,-2.50819841,1.71670859,-0.26174541\C,0,-0.31271941,0.74729
 359,0.65804359\N,0,0.85960759,0.02332859,0.21421059\C,0,1.48655259,0.4
 4286859,-1.01922441\C,0,1.35675159,-1.03827141,0.90796559\O,0,2.319167
 59,-1.69539441,0.59451359\H,0,-2.46828341,-0.65119241,-1.69432641\H,0,
 -0.97392841,-1.33527941,-0.99574941\H,0,-2.46452641,-1.27357841,-0.035
 14641\H,0,-3.07835741,1.74083359,-1.20278941\H,0,-2.05414541,2.7067905
 9,-0.10648241\H,0,-3.24857641,1.57010859,0.55011159\H,0,-0.57732241,0.
 35744859,1.66229459\H,0,-0.05727841,1.81317159,0.80091459\H,0,2.358631
 59,-0.19723841,-1.19270641\H,0,0.78642759,0.35137059,-1.86508141\H,0,1
 .80951259,1.49386959,-0.94976141\H,0,0.76274159,-1.24432841,1.82926959
 \\Version=ES64L-G16RevC.01\HF=-365.7608053\S2=0.755052\S2-1=0.\S2A=0.7
 50021\RMSD=5.393e-09\Dipole=-1.2808776,1.0655695,-0.0620472\Quadrupole
 =-2.7826111,-0.9048209,3.6874321,5.1559791,-1.863871,0.6611927\PG=C01 
 [X(C6H12N1O1)]\\@
 The archive entry for this job was punched.


 IF I HAVE SEEN FARTHER, IT IS BY STANDING ON THE
 SHOULDERS OF GIANTS. -- SIR ISAAC NEWTON
 Job cpu time:       0 days  1 hours 42 minutes  0.8 seconds.
 Elapsed time:       0 days  0 hours  4 minutes 17.2 seconds.
 File lengths (MBytes):  RWF=   1632 Int=      0 D2E=      0 Chk=     32 Scr=     32
 Normal termination of Gaussian 16 at Mon Sep 11 12:34:23 2023.
