 Entering Gaussian System, Link 0=/gpfslocalsup/prod/g16/rev-C01/g16/g16
 Input=r0_C6H13NO_sp_g16.com
 Output=r0_C6H13NO_sp_g16.log
 Initial command:
 /gpfslocalsup/prod/g16/rev-C01/g16/l1.exe "/gpfsssd/jobscratch/uzg38mn_1841822/Gau-1794320.inp" -scrdir="/gpfsssd/jobscratch/uzg38mn_1841822/"
 Entering Link 1 = /gpfslocalsup/prod/g16/rev-C01/g16/l1.exe PID=   1794321.
  
 Copyright (c) 1988-2019, Gaussian, Inc.  All Rights Reserved.
  
 This is part of the Gaussian(R) 16 program.  It is based on
 the Gaussian(R) 09 system (copyright 2009, Gaussian, Inc.),
 the Gaussian(R) 03 system (copyright 2003, Gaussian, Inc.),
 the Gaussian(R) 98 system (copyright 1998, Gaussian, Inc.),
 the Gaussian(R) 94 system (copyright 1995, Gaussian, Inc.),
 the Gaussian 92(TM) system (copyright 1992, Gaussian, Inc.),
 the Gaussian 90(TM) system (copyright 1990, Gaussian, Inc.),
 the Gaussian 88(TM) system (copyright 1988, Gaussian, Inc.),
 the Gaussian 86(TM) system (copyright 1986, Carnegie Mellon
 University), and the Gaussian 82(TM) system (copyright 1983,
 Carnegie Mellon University). Gaussian is a federally registered
 trademark of Gaussian, Inc.
  
 This software contains proprietary and confidential information,
 including trade secrets, belonging to Gaussian, Inc.
  
 This software is provided under written license and may be
 used, copied, transmitted, or stored only in accord with that
 written license.
  
 The following legend is applicable only to US Government
 contracts under FAR:
  
                    RESTRICTED RIGHTS LEGEND
  
 Use, reproduction and disclosure by the US Government is
 subject to restrictions as set forth in subparagraphs (a)
 and (c) of the Commercial Computer Software - Restricted
 Rights clause in FAR 52.227-19.
  
 Gaussian, Inc.
 340 Quinnipiac St., Bldg. 40, Wallingford CT 06492
  
  
 ---------------------------------------------------------------
 Warning -- This program may not be used in any manner that
 competes with the business of Gaussian, Inc. or will provide
 assistance to any competitor of Gaussian, Inc.  The licensee
 of this program is prohibited from giving any competitor of
 Gaussian, Inc. access to this program.  By using this program,
 the user acknowledges that Gaussian, Inc. is engaged in the
 business of creating and licensing software in the field of
 computational chemistry and represents and warrants to the
 licensee that it is not a competitor of Gaussian, Inc. and that
 it will not use this program in any manner prohibited above.
 ---------------------------------------------------------------
  

 Cite this work as:
 Gaussian 16, Revision C.01,
 M. J. Frisch, G. W. Trucks, H. B. Schlegel, G. E. Scuseria, 
 M. A. Robb, J. R. Cheeseman, G. Scalmani, V. Barone, 
 G. A. Petersson, H. Nakatsuji, X. Li, M. Caricato, A. V. Marenich, 
 J. Bloino, B. G. Janesko, R. Gomperts, B. Mennucci, H. P. Hratchian, 
 J. V. Ortiz, A. F. Izmaylov, J. L. Sonnenberg, D. Williams-Young, 
 F. Ding, F. Lipparini, F. Egidi, J. Goings, B. Peng, A. Petrone, 
 T. Henderson, D. Ranasinghe, V. G. Zakrzewski, J. Gao, N. Rega, 
 G. Zheng, W. Liang, M. Hada, M. Ehara, K. Toyota, R. Fukuda, 
 J. Hasegawa, M. Ishida, T. Nakajima, Y. Honda, O. Kitao, H. Nakai, 
 T. Vreven, K. Throssell, J. A. Montgomery, Jr., J. E. Peralta, 
 F. Ogliaro, M. J. Bearpark, J. J. Heyd, E. N. Brothers, K. N. Kudin, 
 V. N. Staroverov, T. A. Keith, R. Kobayashi, J. Normand, 
 K. Raghavachari, A. P. Rendell, J. C. Burant, S. S. Iyengar, 
 J. Tomasi, M. Cossi, J. M. Millam, M. Klene, C. Adamo, R. Cammi, 
 J. W. Ochterski, R. L. Martin, K. Morokuma, O. Farkas, 
 J. B. Foresman, and D. J. Fox, Gaussian, Inc., Wallingford CT, 2019.
 
 ******************************************
 Gaussian 16:  ES64L-G16RevC.01  3-Jul-2019
                11-Sep-2023 
 ******************************************
 %mem=96000MB
 %nprocshared=24
 Will use up to   24 processors via shared memory.
 -----------------------------------
 # um062x Def2TZVP stable=opt NoSymm
 -----------------------------------
 1/38=1,172=1/1;
 2/12=2,15=1,17=6,18=5,40=1/2;
 3/5=44,7=101,11=2,25=1,30=1,74=-55,116=2/1,2,3;
 4//1;
 5/5=2,38=5/2;
 6/7=2,8=2,9=2,10=2,28=1/1;
 8/6=1,10=90,11=11/1;
 9/8=-3,42=1,46=1/14;
 5/5=2,8=3,17=40,38=5/8(-2);
 6/7=2,8=2,9=2,10=2,28=1/1;
 99/5=1,9=1/99;
 -----------------
 r0_C6H13NO_sp_g16
 -----------------
 Symbolic Z-matrix:
 Charge =  0 Multiplicity = 1
 C                    -2.46022  -0.87465   1.54064 
 C                    -1.40964  -0.76648   0.43855 
 C                    -1.93337   0.0091   -0.76584 
 C                    -0.14086  -0.11534   1.00284 
 N                     0.91939   0.05511   0.0358 
 C                     1.52992  -1.12328  -0.53782 
 C                     1.3069    1.28887  -0.39361 
 O                     2.15141   1.50758  -1.22772 
 H                    -2.07946  -1.4339    2.40807 
 H                    -2.75991   0.12668   1.88904 
 H                    -3.36262  -1.38625   1.17777 
 H                    -1.15082  -1.789     0.11227 
 H                    -2.8468   -0.45338  -1.1662 
 H                    -1.19012   0.05151  -1.57509 
 H                    -2.17867   1.04515  -0.47961 
 H                    -0.39818   0.88039   1.40103 
 H                     0.23216  -0.71494   1.85269 
 H                     2.42204  -0.81022  -1.09178 
 H                     1.81483  -1.82734   0.25901 
 H                     0.84709  -1.63924  -1.23293 
 H                     0.7507    2.10303   0.12707 
 
                          Input orientation:                          
 ---------------------------------------------------------------------
 Center     Atomic      Atomic             Coordinates (Angstroms)
 Number     Number       Type             X           Y           Z
 ---------------------------------------------------------------------
      1          6           0       -2.460222   -0.874651    1.540639
      2          6           0       -1.409641   -0.766484    0.438551
      3          6           0       -1.933373    0.009105   -0.765842
      4          6           0       -0.140860   -0.115344    1.002835
      5          7           0        0.919394    0.055110    0.035799
      6          6           0        1.529918   -1.123281   -0.537823
      7          6           0        1.306902    1.288868   -0.393615
      8          8           0        2.151409    1.507581   -1.227716
      9          1           0       -2.079458   -1.433896    2.408071
     10          1           0       -2.759905    0.126683    1.889038
     11          1           0       -3.362617   -1.386248    1.177772
     12          1           0       -1.150821   -1.788995    0.112274
     13          1           0       -2.846801   -0.453378   -1.166203
     14          1           0       -1.190122    0.051508   -1.575094
     15          1           0       -2.178666    1.045151   -0.479606
     16          1           0       -0.398175    0.880394    1.401026
     17          1           0        0.232156   -0.714940    1.852688
     18          1           0        2.422037   -0.810215   -1.091780
     19          1           0        1.814831   -1.827341    0.259008
     20          1           0        0.847093   -1.639243   -1.232930
     21          1           0        0.750699    2.103035    0.127070
 ---------------------------------------------------------------------
                    Distance matrix (angstroms):
                    1          2          3          4          5
     1  C    0.000000
     2  C    1.526440   0.000000
     3  C    2.525559   1.525253   0.000000
     4  C    2.499044   1.533690   2.521271   0.000000
     5  N    3.814552   2.502325   2.963617   1.445113   0.000000
     6  C    4.505889   3.117951   3.650846   2.486174   1.445817
     7  C    4.755352   3.506648   3.503674   2.453141   1.362614
     8  O    5.882683   4.541904   4.375409   3.586606   2.285608
     9  H    1.100079   2.184743   3.489601   2.733392   4.103404
    10  H    1.101754   2.173677   2.783050   2.775487   4.120298
    11  H    1.098963   2.178226   2.787003   3.467783   4.660175
    12  H    2.142611   1.104071   2.148637   2.148075   2.773511
    13  H    2.766570   2.176855   1.099332   3.484409   3.985924
    14  H    3.489802   2.184506   1.099595   2.788281   2.654251
    15  H    2.801125   2.171735   1.102493   2.774353   3.292992
    16  H    2.711404   2.159081   2.794869   1.102842   2.069040
    17  H    2.715102   2.167473   3.474256   1.104946   2.089583
    18  H    5.547092   4.126207   4.443773   3.382115   2.068371
    19  H    4.563581   3.399246   4.297893   2.703505   2.096485
    20  H    4.383562   2.940817   3.265917   2.880445   2.117955
    21  H    4.601609   3.605306   3.519386   2.546183   2.056887
                    6          7          8          9         10
     6  C    0.000000
     7  C    2.426725   0.000000
     8  O    2.789917   1.206960   0.000000
     9  H    4.669301   5.170138   6.306463   0.000000
    10  H    5.084746   4.806256   5.978465   1.779834   0.000000
    11  H    5.191273   5.606239   6.675710   1.778315   1.777110
    12  H    2.837633   3.971091   4.854659   2.501828   3.068528
    13  H    4.472058   4.570072   5.369474   3.784926   3.111032
    14  H    3.139216   3.026893   3.661509   4.343149   3.803956
    15  H    4.296403   3.495136   4.418491   3.807124   2.606127
    16  H    3.389896   2.508959   3.715377   3.032621   2.526659
    17  H    2.750540   3.196279   4.255822   2.483729   3.108389
    18  H    1.095790   2.477319   2.337498   5.735974   6.051081
    19  H    1.100825   3.224076   3.666788   4.465284   5.234827
    20  H    1.102561   3.080537   3.406430   4.675870   5.086808
    21  H    3.385023   1.115053   2.037645   5.071749   4.397140
                   11         12         13         14         15
    11  H    0.000000
    12  H    2.487877   0.000000
    13  H    2.574982   2.508929   0.000000
    14  H    3.790138   2.497240   1.779519   0.000000
    15  H    3.171804   3.072323   1.778597   1.778943   0.000000
    16  H    3.738372   3.058267   3.790169   3.189282   2.595009
    17  H    3.718677   2.468858   4.319965   3.789460   3.788084
    18  H    6.240585   3.895263   5.281432   3.744843   4.998361
    19  H    5.276804   2.969527   5.064565   3.990457   4.974412
    20  H    4.857690   2.413226   3.880152   2.669449   4.114448
    21  H    5.495311   4.331731   4.598892   3.297410   3.173067
                   16         17         18         19         20
    16  H    0.000000
    17  H    1.773811   0.000000
    18  H    4.126238   3.670769   0.000000
    19  H    3.678781   2.506414   1.796628   0.000000
    20  H    3.851881   3.279256   1.785402   1.788233   0.000000
    21  H    2.106591   3.344791   3.572953   4.074020   3.982906
                   21
    21  H    0.000000
 Symmetry turned off by external request.
 Stoichiometry    C6H13NO
 Framework group  C1[X(C6H13NO)]
 Deg. of freedom    57
 Full point group                 C1      NOp   1
 Rotational constants (GHZ):           3.8598313           1.1044242           1.0393782
 Standard basis: def2TZVP (5D, 7F)
   326 basis functions,   512 primitive gaussians,   366 cartesian basis functions
    32 alpha electrons       32 beta electrons
       nuclear repulsion energy       398.6993475354 Hartrees.
 NAtoms=   21 NActive=   21 NUniq=   21 SFac= 1.00D+00 NAtFMM=   60 NAOKFM=F Big=F
 Integral buffers will be    131072 words long.
 Raffenetti 2 integral format.
 Two-electron integral symmetry is turned off.
 One-electron integrals computed using PRISM.
   1 Symmetry operations used in ECPInt.
 ECPInt:  NShTT=    9870 NPrTT=   28656 LenC2=    9635 LenP2D=   22470.
 LDataN:  DoStor=T MaxTD1= 6 Len=  172
 NBasis=   326 RedAO= T EigKep=  1.59D-04  NBF=   326
 NBsUse=   326 1.00D-06 EigRej= -1.00D+00 NBFU=   326
 ExpMin= 9.52D-02 ExpMax= 2.70D+04 ExpMxC= 9.22D+02 IAcc=3 IRadAn=         5 AccDes= 0.00D+00
 Harris functional with IExCor= 1009 and IRadAn=       5 diagonalized for initial guess.
 HarFok:  IExCor= 1009 AccDes= 0.00D+00 IRadAn=         5 IDoV= 1 UseB2=F ITyADJ=14
 ICtDFT=  3500011 ScaDFX=  1.000000  1.000000  1.000000  1.000000
 FoFCou: FMM=F IPFlag=           0 FMFlag=      100000 FMFlg1=           0
         NFxFlg=           0 DoJE=T BraDBF=F KetDBF=T FulRan=T
         wScrn=  0.000000 ICntrl=       500 IOpCl=  0 I1Cent=   200000004 NGrid=           0
         NMat0=    1 NMatS0=      1 NMatT0=    0 NMatD0=    1 NMtDS0=    0 NMtDT0=    0
 Symmetry not used in FoFCou.
 Initial guess <Sx>= 0.0000 <Sy>= 0.0000 <Sz>= 0.0000 <S**2>=-0.0000 S=-0.0000
 Requested convergence on RMS density matrix=1.00D-08 within 128 cycles.
 Requested convergence on MAX density matrix=1.00D-06.
 Requested convergence on             energy=1.00D-06.
 No special actions if energy rises.
 Integral accuracy reduced to 1.0D-05 until final iterations.
 Initial convergence to 1.0D-05 achieved.  Increase integral accuracy.
 SCF Done:  E(UM062X) =  -366.422286382     A.U. after   14 cycles
            NFock= 14  Conv=0.42D-08     -V/T= 2.0054
 <Sx>= 0.0000 <Sy>= 0.0000 <Sz>= 0.0000 <S**2>=-0.0000 S=-0.0000
 <L.S>=  0.00000000000    
 Annihilation of the first spin contaminant:
 S**2 before annihilation    -0.0000,   after    -0.0000

 **********************************************************************

            Population analysis using the SCF Density.

 **********************************************************************

 Alpha  occ. eigenvalues --  -19.59156 -14.77931 -10.63443 -10.58333 -10.56997
 Alpha  occ. eigenvalues --  -10.55299 -10.53804 -10.53390  -1.16209  -1.05550
 Alpha  occ. eigenvalues --   -0.91490  -0.82014  -0.78854  -0.78367  -0.66507
 Alpha  occ. eigenvalues --   -0.64931  -0.59955  -0.56420  -0.54361  -0.53409
 Alpha  occ. eigenvalues --   -0.50003  -0.48982  -0.47414  -0.46157  -0.45515
 Alpha  occ. eigenvalues --   -0.45257  -0.44753  -0.41455  -0.40681  -0.39804
 Alpha  occ. eigenvalues --   -0.33456  -0.30477
 Alpha virt. eigenvalues --    0.05104   0.05749   0.07739   0.08980   0.10337
 Alpha virt. eigenvalues --    0.10902   0.12006   0.12977   0.13960   0.14334
 Alpha virt. eigenvalues --    0.14760   0.15638   0.17378   0.17455   0.18011
 Alpha virt. eigenvalues --    0.18226   0.20004   0.20892   0.21620   0.23455
 Alpha virt. eigenvalues --    0.24079   0.25215   0.26757   0.26883   0.28911
 Alpha virt. eigenvalues --    0.30392   0.32643   0.34268   0.35066   0.35621
 Alpha virt. eigenvalues --    0.36537   0.37515   0.38886   0.39974   0.40941
 Alpha virt. eigenvalues --    0.41657   0.43265   0.43590   0.44037   0.44620
 Alpha virt. eigenvalues --    0.45450   0.46761   0.48228   0.48966   0.49361
 Alpha virt. eigenvalues --    0.50432   0.51852   0.52279   0.52790   0.53323
 Alpha virt. eigenvalues --    0.54051   0.55121   0.56885   0.57401   0.58091
 Alpha virt. eigenvalues --    0.61159   0.63254   0.64467   0.64857   0.67368
 Alpha virt. eigenvalues --    0.68466   0.69354   0.71324   0.73629   0.74967
 Alpha virt. eigenvalues --    0.77208   0.81457   0.83514   0.85207   0.86012
 Alpha virt. eigenvalues --    0.87461   0.89138   0.92427   0.93452   0.94932
 Alpha virt. eigenvalues --    0.96884   0.99062   1.00146   1.02285   1.04111
 Alpha virt. eigenvalues --    1.05164   1.08334   1.08692   1.10245   1.11286
 Alpha virt. eigenvalues --    1.14033   1.15685   1.16856   1.18983   1.20699
 Alpha virt. eigenvalues --    1.23210   1.24857   1.27405   1.32320   1.34603
 Alpha virt. eigenvalues --    1.37791   1.41866   1.45800   1.47728   1.49186
 Alpha virt. eigenvalues --    1.51604   1.53409   1.54188   1.55584   1.57305
 Alpha virt. eigenvalues --    1.57521   1.58378   1.59264   1.61071   1.61416
 Alpha virt. eigenvalues --    1.62758   1.63918   1.64904   1.65275   1.65881
 Alpha virt. eigenvalues --    1.67974   1.69693   1.71033   1.72773   1.74235
 Alpha virt. eigenvalues --    1.75709   1.78727   1.79255   1.81015   1.84732
 Alpha virt. eigenvalues --    1.87865   1.90227   1.93730   1.95670   1.97535
 Alpha virt. eigenvalues --    1.99171   1.99569   2.02033   2.05298   2.07428
 Alpha virt. eigenvalues --    2.08284   2.08654   2.10366   2.12527   2.16326
 Alpha virt. eigenvalues --    2.17718   2.17819   2.19533   2.25108   2.27931
 Alpha virt. eigenvalues --    2.29642   2.30013   2.32327   2.33560   2.34385
 Alpha virt. eigenvalues --    2.36022   2.36894   2.37559   2.39593   2.40500
 Alpha virt. eigenvalues --    2.41591   2.43559   2.44721   2.46104   2.49919
 Alpha virt. eigenvalues --    2.50971   2.52490   2.53195   2.54385   2.56425
 Alpha virt. eigenvalues --    2.57766   2.58810   2.59960   2.62406   2.63289
 Alpha virt. eigenvalues --    2.63790   2.64955   2.67540   2.68880   2.70673
 Alpha virt. eigenvalues --    2.73460   2.77040   2.79084   2.79871   2.81337
 Alpha virt. eigenvalues --    2.82549   2.85064   2.86515   2.89643   2.92607
 Alpha virt. eigenvalues --    2.93213   2.99391   3.02961   3.04274   3.05764
 Alpha virt. eigenvalues --    3.07419   3.08127   3.09686   3.09743   3.11645
 Alpha virt. eigenvalues --    3.13632   3.13936   3.15420   3.17706   3.21249
 Alpha virt. eigenvalues --    3.22162   3.23064   3.24110   3.27077   3.28396
 Alpha virt. eigenvalues --    3.29811   3.31037   3.33694   3.34720   3.35073
 Alpha virt. eigenvalues --    3.36090   3.37772   3.39661   3.41847   3.43920
 Alpha virt. eigenvalues --    3.45469   3.47033   3.47752   3.51832   3.54573
 Alpha virt. eigenvalues --    3.55090   3.55435   3.57939   3.60382   3.61023
 Alpha virt. eigenvalues --    3.63267   3.64123   3.66422   3.67587   3.69790
 Alpha virt. eigenvalues --    3.72375   3.74824   3.81503   3.88747   3.90835
 Alpha virt. eigenvalues --    3.94817   3.97756   4.00171   4.00330   4.00927
 Alpha virt. eigenvalues --    4.05904   4.08702   4.11505   4.13017   4.17232
 Alpha virt. eigenvalues --    4.19679   4.25671   4.30424   4.32868   4.35590
 Alpha virt. eigenvalues --    4.37309   4.38233   4.40911   4.42527   4.47223
 Alpha virt. eigenvalues --    4.52754   4.60651   4.61340   4.68269   4.78222
 Alpha virt. eigenvalues --    4.80877   4.82786   4.88918   4.91863   4.99411
 Alpha virt. eigenvalues --    5.10214   5.18485   5.19473   5.24126   5.27414
 Alpha virt. eigenvalues --    5.27937   5.30631   5.51703   5.56707   5.65413
 Alpha virt. eigenvalues --    5.67076   5.71447   5.84604   6.12314   6.38641
 Alpha virt. eigenvalues --    6.39527   6.48132   6.59863   6.81656   6.99207
 Alpha virt. eigenvalues --    7.09092  22.43597  22.46288  22.50340  22.68213
 Alpha virt. eigenvalues --   22.72274  23.19079  32.92150  43.98006
  Beta  occ. eigenvalues --  -19.59156 -14.77931 -10.63443 -10.58333 -10.56997
  Beta  occ. eigenvalues --  -10.55299 -10.53804 -10.53390  -1.16209  -1.05550
  Beta  occ. eigenvalues --   -0.91490  -0.82014  -0.78854  -0.78367  -0.66507
  Beta  occ. eigenvalues --   -0.64931  -0.59955  -0.56420  -0.54361  -0.53409
  Beta  occ. eigenvalues --   -0.50003  -0.48982  -0.47414  -0.46157  -0.45515
  Beta  occ. eigenvalues --   -0.45257  -0.44753  -0.41455  -0.40681  -0.39804
  Beta  occ. eigenvalues --   -0.33456  -0.30477
  Beta virt. eigenvalues --    0.05104   0.05749   0.07739   0.08980   0.10337
  Beta virt. eigenvalues --    0.10902   0.12006   0.12977   0.13960   0.14334
  Beta virt. eigenvalues --    0.14760   0.15638   0.17378   0.17455   0.18011
  Beta virt. eigenvalues --    0.18226   0.20004   0.20892   0.21620   0.23455
  Beta virt. eigenvalues --    0.24079   0.25215   0.26757   0.26883   0.28911
  Beta virt. eigenvalues --    0.30392   0.32643   0.34268   0.35066   0.35621
  Beta virt. eigenvalues --    0.36537   0.37515   0.38886   0.39974   0.40941
  Beta virt. eigenvalues --    0.41657   0.43265   0.43590   0.44037   0.44620
  Beta virt. eigenvalues --    0.45450   0.46761   0.48228   0.48966   0.49361
  Beta virt. eigenvalues --    0.50432   0.51852   0.52279   0.52790   0.53323
  Beta virt. eigenvalues --    0.54051   0.55121   0.56885   0.57401   0.58091
  Beta virt. eigenvalues --    0.61159   0.63254   0.64467   0.64857   0.67368
  Beta virt. eigenvalues --    0.68466   0.69354   0.71324   0.73629   0.74967
  Beta virt. eigenvalues --    0.77208   0.81457   0.83514   0.85207   0.86012
  Beta virt. eigenvalues --    0.87461   0.89138   0.92427   0.93452   0.94932
  Beta virt. eigenvalues --    0.96884   0.99062   1.00146   1.02285   1.04111
  Beta virt. eigenvalues --    1.05164   1.08334   1.08692   1.10245   1.11286
  Beta virt. eigenvalues --    1.14033   1.15685   1.16856   1.18983   1.20699
  Beta virt. eigenvalues --    1.23210   1.24857   1.27405   1.32320   1.34603
  Beta virt. eigenvalues --    1.37791   1.41866   1.45800   1.47728   1.49186
  Beta virt. eigenvalues --    1.51604   1.53409   1.54188   1.55584   1.57305
  Beta virt. eigenvalues --    1.57521   1.58378   1.59264   1.61071   1.61416
  Beta virt. eigenvalues --    1.62758   1.63918   1.64904   1.65275   1.65881
  Beta virt. eigenvalues --    1.67974   1.69693   1.71033   1.72773   1.74235
  Beta virt. eigenvalues --    1.75709   1.78727   1.79255   1.81015   1.84732
  Beta virt. eigenvalues --    1.87865   1.90227   1.93730   1.95670   1.97535
  Beta virt. eigenvalues --    1.99171   1.99569   2.02033   2.05298   2.07428
  Beta virt. eigenvalues --    2.08284   2.08654   2.10366   2.12527   2.16326
  Beta virt. eigenvalues --    2.17718   2.17819   2.19533   2.25108   2.27931
  Beta virt. eigenvalues --    2.29642   2.30013   2.32327   2.33560   2.34385
  Beta virt. eigenvalues --    2.36022   2.36894   2.37559   2.39593   2.40500
  Beta virt. eigenvalues --    2.41591   2.43559   2.44721   2.46104   2.49919
  Beta virt. eigenvalues --    2.50971   2.52490   2.53195   2.54385   2.56425
  Beta virt. eigenvalues --    2.57766   2.58810   2.59960   2.62406   2.63289
  Beta virt. eigenvalues --    2.63790   2.64955   2.67540   2.68880   2.70673
  Beta virt. eigenvalues --    2.73460   2.77040   2.79084   2.79871   2.81337
  Beta virt. eigenvalues --    2.82549   2.85064   2.86515   2.89643   2.92607
  Beta virt. eigenvalues --    2.93213   2.99391   3.02961   3.04274   3.05764
  Beta virt. eigenvalues --    3.07419   3.08127   3.09686   3.09743   3.11645
  Beta virt. eigenvalues --    3.13632   3.13936   3.15420   3.17706   3.21249
  Beta virt. eigenvalues --    3.22162   3.23064   3.24110   3.27077   3.28396
  Beta virt. eigenvalues --    3.29811   3.31037   3.33694   3.34720   3.35073
  Beta virt. eigenvalues --    3.36090   3.37772   3.39661   3.41847   3.43920
  Beta virt. eigenvalues --    3.45469   3.47033   3.47752   3.51832   3.54573
  Beta virt. eigenvalues --    3.55090   3.55435   3.57939   3.60382   3.61023
  Beta virt. eigenvalues --    3.63267   3.64123   3.66422   3.67587   3.69790
  Beta virt. eigenvalues --    3.72375   3.74824   3.81503   3.88747   3.90835
  Beta virt. eigenvalues --    3.94817   3.97756   4.00171   4.00330   4.00927
  Beta virt. eigenvalues --    4.05904   4.08702   4.11505   4.13017   4.17232
  Beta virt. eigenvalues --    4.19679   4.25671   4.30424   4.32868   4.35590
  Beta virt. eigenvalues --    4.37309   4.38233   4.40911   4.42527   4.47223
  Beta virt. eigenvalues --    4.52754   4.60651   4.61340   4.68269   4.78222
  Beta virt. eigenvalues --    4.80877   4.82786   4.88918   4.91863   4.99411
  Beta virt. eigenvalues --    5.10214   5.18485   5.19473   5.24126   5.27414
  Beta virt. eigenvalues --    5.27937   5.30631   5.51703   5.56707   5.65413
  Beta virt. eigenvalues --    5.67076   5.71447   5.84604   6.12314   6.38641
  Beta virt. eigenvalues --    6.39527   6.48132   6.59863   6.81656   6.99207
  Beta virt. eigenvalues --    7.09092  22.43597  22.46288  22.50340  22.68213
  Beta virt. eigenvalues --   22.72274  23.19079  32.92150  43.98006
          Condensed to atoms (all electrons):
               1          2          3          4          5          6
     1  C    5.076491   0.275090  -0.058466  -0.065392   0.010687  -0.000255
     2  C    0.275090   5.576103   0.160022   0.095622  -0.109963   0.025183
     3  C   -0.058466   0.160022   5.196969  -0.033485   0.051258  -0.012213
     4  C   -0.065392   0.095622  -0.033485   5.357202   0.220761  -0.060849
     5  N    0.010687  -0.109963   0.051258   0.220761   6.902692   0.215560
     6  C   -0.000255   0.025183  -0.012213  -0.060849   0.215560   5.010342
     7  C   -0.000466  -0.003893  -0.003324  -0.037125   0.286549  -0.044272
     8  O   -0.000014   0.000904  -0.001354   0.001678  -0.127370  -0.012152
     9  H    0.412669  -0.046548   0.012305  -0.003116   0.000087   0.000001
    10  H    0.407986  -0.021111  -0.014946  -0.017740   0.000011  -0.000018
    11  H    0.422205  -0.047244  -0.007159   0.013029  -0.000571   0.000019
    12  H   -0.039792   0.431227  -0.064385  -0.043915  -0.005679  -0.001356
    13  H   -0.006238  -0.036466   0.410810   0.009670   0.000177  -0.000088
    14  H    0.010366  -0.033122   0.414253  -0.015523   0.002432  -0.000072
    15  H   -0.010849  -0.037267   0.403067   0.003863  -0.004806   0.000462
    16  H    0.000010  -0.041663  -0.014570   0.432857  -0.039421   0.006814
    17  H    0.002341  -0.106827   0.015161   0.457554  -0.037628  -0.007851
    18  H    0.000037  -0.002249   0.000363   0.009385  -0.032684   0.404026
    19  H   -0.000071  -0.019545   0.002324   0.011338  -0.045296   0.406800
    20  H    0.000340   0.032559  -0.007482  -0.024830  -0.047318   0.421572
    21  H    0.000253  -0.008694  -0.000557   0.016104  -0.135080   0.008456
               7          8          9         10         11         12
     1  C   -0.000466  -0.000014   0.412669   0.407986   0.422205  -0.039792
     2  C   -0.003893   0.000904  -0.046548  -0.021111  -0.047244   0.431227
     3  C   -0.003324  -0.001354   0.012305  -0.014946  -0.007159  -0.064385
     4  C   -0.037125   0.001678  -0.003116  -0.017740   0.013029  -0.043915
     5  N    0.286549  -0.127370   0.000087   0.000011  -0.000571  -0.005679
     6  C   -0.044272  -0.012152   0.000001  -0.000018   0.000019  -0.001356
     7  C    4.564574   0.648256   0.000036  -0.000020  -0.000006  -0.000460
     8  O    0.648256   7.891288   0.000000   0.000001  -0.000000  -0.000003
     9  H    0.000036   0.000000   0.532921  -0.027902  -0.020423  -0.006205
    10  H   -0.000020   0.000001  -0.027902   0.536296  -0.026152   0.009505
    11  H   -0.000006  -0.000000  -0.020423  -0.026152   0.520726  -0.006405
    12  H   -0.000460  -0.000003  -0.006205   0.009505  -0.006405   0.587037
    13  H    0.000027  -0.000005  -0.000102  -0.000102   0.002542  -0.005564
    14  H   -0.003443   0.000383  -0.000411  -0.000141   0.000013  -0.004351
    15  H   -0.000387   0.000046  -0.000160   0.005445  -0.000158   0.009100
    16  H   -0.014752   0.000329  -0.000751   0.004921  -0.000193   0.006365
    17  H    0.002087  -0.000010   0.003675   0.000228  -0.000711  -0.001626
    18  H   -0.015632   0.021814   0.000001   0.000001  -0.000002   0.000221
    19  H    0.004921   0.001068   0.000061   0.000007  -0.000016   0.001424
    20  H    0.002092   0.000731  -0.000021  -0.000045   0.000048  -0.009465
    21  H    0.444487  -0.054653   0.000024  -0.000062  -0.000008  -0.000166
              13         14         15         16         17         18
     1  C   -0.006238   0.010366  -0.010849   0.000010   0.002341   0.000037
     2  C   -0.036466  -0.033122  -0.037267  -0.041663  -0.106827  -0.002249
     3  C    0.410810   0.414253   0.403067  -0.014570   0.015161   0.000363
     4  C    0.009670  -0.015523   0.003863   0.432857   0.457554   0.009385
     5  N    0.000177   0.002432  -0.004806  -0.039421  -0.037628  -0.032684
     6  C   -0.000088  -0.000072   0.000462   0.006814  -0.007851   0.404026
     7  C    0.000027  -0.003443  -0.000387  -0.014752   0.002087  -0.015632
     8  O   -0.000005   0.000383   0.000046   0.000329  -0.000010   0.021814
     9  H   -0.000102  -0.000411  -0.000160  -0.000751   0.003675   0.000001
    10  H   -0.000102  -0.000141   0.005445   0.004921   0.000228   0.000001
    11  H    0.002542   0.000013  -0.000158  -0.000193  -0.000711  -0.000002
    12  H   -0.005564  -0.004351   0.009100   0.006365  -0.001626   0.000221
    13  H    0.518721  -0.018828  -0.024718  -0.000259  -0.000355  -0.000003
    14  H   -0.018828   0.512735  -0.026207   0.000877  -0.000488  -0.000177
    15  H   -0.024718  -0.026207   0.534149   0.002766   0.000022   0.000011
    16  H   -0.000259   0.000877   0.002766   0.494945  -0.013536  -0.000119
    17  H   -0.000355  -0.000488   0.000022  -0.013536   0.517155   0.000464
    18  H   -0.000003  -0.000177   0.000011  -0.000119   0.000464   0.465087
    19  H   -0.000012  -0.000082  -0.000024   0.000455   0.004031  -0.015017
    20  H   -0.000009   0.001235  -0.000025  -0.000552  -0.001270  -0.024147
    21  H   -0.000132  -0.000327   0.000574  -0.000369   0.001562   0.002551
              19         20         21
     1  C   -0.000071   0.000340   0.000253
     2  C   -0.019545   0.032559  -0.008694
     3  C    0.002324  -0.007482  -0.000557
     4  C    0.011338  -0.024830   0.016104
     5  N   -0.045296  -0.047318  -0.135080
     6  C    0.406800   0.421572   0.008456
     7  C    0.004921   0.002092   0.444487
     8  O    0.001068   0.000731  -0.054653
     9  H    0.000061  -0.000021   0.000024
    10  H    0.000007  -0.000045  -0.000062
    11  H   -0.000016   0.000048  -0.000008
    12  H    0.001424  -0.009465  -0.000166
    13  H   -0.000012  -0.000009  -0.000132
    14  H   -0.000082   0.001235  -0.000327
    15  H   -0.000024  -0.000025   0.000574
    16  H    0.000455  -0.000552  -0.000369
    17  H    0.004031  -0.001270   0.001562
    18  H   -0.015017  -0.024147   0.002551
    19  H    0.542513  -0.044048   0.000108
    20  H   -0.044048   0.547957  -0.000348
    21  H    0.000108  -0.000348   0.636451
          Atomic-Atomic Spin Densities.
               1          2          3          4          5          6
     1  C    0.000000   0.000000   0.000000   0.000000   0.000000   0.000000
     2  C    0.000000   0.000000   0.000000   0.000000   0.000000   0.000000
     3  C    0.000000   0.000000   0.000000   0.000000   0.000000   0.000000
     4  C    0.000000   0.000000   0.000000   0.000000   0.000000   0.000000
     5  N    0.000000   0.000000   0.000000   0.000000   0.000000   0.000000
     6  C    0.000000   0.000000   0.000000   0.000000   0.000000   0.000000
     7  C    0.000000   0.000000   0.000000   0.000000   0.000000   0.000000
     8  O    0.000000   0.000000   0.000000   0.000000   0.000000   0.000000
     9  H    0.000000   0.000000   0.000000   0.000000   0.000000   0.000000
    10  H    0.000000   0.000000   0.000000   0.000000   0.000000   0.000000
    11  H    0.000000   0.000000   0.000000   0.000000   0.000000   0.000000
    12  H    0.000000   0.000000   0.000000   0.000000   0.000000   0.000000
    13  H    0.000000   0.000000   0.000000   0.000000   0.000000   0.000000
    14  H    0.000000   0.000000   0.000000   0.000000   0.000000   0.000000
    15  H    0.000000   0.000000   0.000000   0.000000   0.000000   0.000000
    16  H    0.000000   0.000000   0.000000   0.000000   0.000000   0.000000
    17  H    0.000000   0.000000   0.000000   0.000000   0.000000   0.000000
    18  H    0.000000   0.000000   0.000000   0.000000   0.000000   0.000000
    19  H    0.000000   0.000000   0.000000   0.000000   0.000000   0.000000
    20  H    0.000000   0.000000   0.000000   0.000000   0.000000   0.000000
    21  H    0.000000   0.000000   0.000000   0.000000   0.000000   0.000000
               7          8          9         10         11         12
     1  C    0.000000   0.000000   0.000000   0.000000   0.000000   0.000000
     2  C    0.000000   0.000000   0.000000   0.000000   0.000000   0.000000
     3  C    0.000000   0.000000   0.000000   0.000000   0.000000   0.000000
     4  C    0.000000   0.000000   0.000000   0.000000   0.000000   0.000000
     5  N    0.000000   0.000000   0.000000   0.000000   0.000000   0.000000
     6  C    0.000000   0.000000   0.000000   0.000000   0.000000   0.000000
     7  C    0.000000   0.000000   0.000000   0.000000   0.000000   0.000000
     8  O    0.000000   0.000000   0.000000   0.000000   0.000000   0.000000
     9  H    0.000000   0.000000   0.000000   0.000000   0.000000   0.000000
    10  H    0.000000   0.000000   0.000000   0.000000   0.000000   0.000000
    11  H    0.000000   0.000000   0.000000   0.000000   0.000000   0.000000
    12  H    0.000000   0.000000   0.000000   0.000000   0.000000   0.000000
    13  H    0.000000   0.000000   0.000000   0.000000   0.000000   0.000000
    14  H    0.000000   0.000000   0.000000   0.000000   0.000000   0.000000
    15  H    0.000000   0.000000   0.000000   0.000000   0.000000   0.000000
    16  H    0.000000   0.000000   0.000000   0.000000   0.000000   0.000000
    17  H    0.000000   0.000000   0.000000   0.000000   0.000000   0.000000
    18  H    0.000000   0.000000   0.000000   0.000000   0.000000   0.000000
    19  H    0.000000   0.000000   0.000000   0.000000   0.000000   0.000000
    20  H    0.000000   0.000000   0.000000   0.000000   0.000000   0.000000
    21  H    0.000000   0.000000   0.000000   0.000000   0.000000   0.000000
              13         14         15         16         17         18
     1  C    0.000000   0.000000   0.000000   0.000000   0.000000   0.000000
     2  C    0.000000   0.000000   0.000000   0.000000   0.000000   0.000000
     3  C    0.000000   0.000000   0.000000   0.000000   0.000000   0.000000
     4  C    0.000000   0.000000   0.000000   0.000000   0.000000   0.000000
     5  N    0.000000   0.000000   0.000000   0.000000   0.000000   0.000000
     6  C    0.000000   0.000000   0.000000   0.000000   0.000000   0.000000
     7  C    0.000000   0.000000   0.000000   0.000000   0.000000   0.000000
     8  O    0.000000   0.000000   0.000000   0.000000   0.000000   0.000000
     9  H    0.000000   0.000000   0.000000   0.000000   0.000000   0.000000
    10  H    0.000000   0.000000   0.000000   0.000000   0.000000   0.000000
    11  H    0.000000   0.000000   0.000000   0.000000   0.000000   0.000000
    12  H    0.000000   0.000000   0.000000   0.000000   0.000000   0.000000
    13  H    0.000000   0.000000   0.000000   0.000000   0.000000   0.000000
    14  H    0.000000   0.000000   0.000000   0.000000   0.000000   0.000000
    15  H    0.000000   0.000000   0.000000   0.000000   0.000000   0.000000
    16  H    0.000000   0.000000   0.000000   0.000000   0.000000   0.000000
    17  H    0.000000   0.000000   0.000000   0.000000   0.000000   0.000000
    18  H    0.000000   0.000000   0.000000   0.000000   0.000000   0.000000
    19  H    0.000000   0.000000   0.000000   0.000000   0.000000   0.000000
    20  H    0.000000   0.000000   0.000000   0.000000   0.000000   0.000000
    21  H    0.000000   0.000000   0.000000   0.000000   0.000000   0.000000
              19         20         21
     1  C    0.000000   0.000000   0.000000
     2  C    0.000000   0.000000   0.000000
     3  C    0.000000   0.000000   0.000000
     4  C    0.000000   0.000000   0.000000
     5  N    0.000000   0.000000   0.000000
     6  C    0.000000   0.000000   0.000000
     7  C    0.000000   0.000000   0.000000
     8  O    0.000000   0.000000   0.000000
     9  H    0.000000   0.000000   0.000000
    10  H    0.000000   0.000000   0.000000
    11  H    0.000000   0.000000   0.000000
    12  H    0.000000   0.000000   0.000000
    13  H    0.000000   0.000000   0.000000
    14  H    0.000000   0.000000   0.000000
    15  H    0.000000   0.000000   0.000000
    16  H    0.000000   0.000000   0.000000
    17  H    0.000000   0.000000   0.000000
    18  H    0.000000   0.000000   0.000000
    19  H    0.000000   0.000000   0.000000
    20  H    0.000000   0.000000   0.000000
    21  H    0.000000   0.000000   0.000000
 Mulliken charges and spin densities:
               1          2
     1  C   -0.436931   0.000000
     2  C   -0.082117   0.000000
     3  C   -0.448590   0.000000
     4  C   -0.327088   0.000000
     5  N   -0.104398   0.000000
     6  C   -0.360110   0.000000
     7  C    0.170752   0.000000
     8  O   -0.370936   0.000000
     9  H    0.143857   0.000000
    10  H    0.143839   0.000000
    11  H    0.150466   0.000000
    12  H    0.144493   0.000000
    13  H    0.150935   0.000000
    14  H    0.160878   0.000000
    15  H    0.145097   0.000000
    16  H    0.175846   0.000000
    17  H    0.166021   0.000000
    18  H    0.186069   0.000000
    19  H    0.149062   0.000000
    20  H    0.153027   0.000000
    21  H    0.089829   0.000000
 Sum of Mulliken charges =  -0.00000   0.00000
 Mulliken charges and spin densities with hydrogens summed into heavy atoms:
               1          2
     1  C    0.001231   0.000000
     2  C    0.062375   0.000000
     3  C    0.008320   0.000000
     4  C    0.014779   0.000000
     5  N   -0.104398   0.000000
     6  C    0.128048   0.000000
     7  C    0.260581   0.000000
     8  O   -0.370936   0.000000
 Electronic spatial extent (au):  <R**2>=           1246.5884
 Charge=             -0.0000 electrons
 Dipole moment (field-independent basis, Debye):
    X=             -2.6744    Y=             -2.2266    Z=              2.2732  Tot=              4.1566
 Quadrupole moment (field-independent basis, Debye-Ang):
   XX=            -57.3756   YY=            -52.1508   ZZ=            -53.9330
   XY=             -5.8998   XZ=              4.4244   YZ=              4.2073
 Traceless Quadrupole moment (field-independent basis, Debye-Ang):
   XX=             -2.8891   YY=              2.3357   ZZ=              0.5534
   XY=             -5.8998   XZ=              4.4244   YZ=              4.2073
 Octapole moment (field-independent basis, Debye-Ang**2):
  XXX=              3.8909  YYY=              7.8162  ZZZ=             -3.7349  XYY=             -0.8581
  XXY=            -13.3290  XXZ=              6.5328  XZZ=              1.4067  YZZ=             -2.9117
  YYZ=              4.4535  XYZ=              8.1577
 Hexadecapole moment (field-independent basis, Debye-Ang**3):
 XXXX=           -989.5211 YYYY=           -362.7842 ZZZZ=           -363.5323 XXXY=           -140.1037
 XXXZ=            166.3839 YYYX=           -127.5723 YYYZ=             75.9455 ZZZX=            149.9681
 ZZZY=             69.3878 XXYY=           -236.9108 XXZZ=           -237.9213 YYZZ=           -125.4217
 XXYZ=             44.9996 YYXZ=             60.7484 ZZXY=            -50.7024
 N-N= 3.986993475354D+02 E-N=-1.649696088392D+03  KE= 3.644513086838D+02
                          Isotropic Fermi Contact Couplings
        Atom                 a.u.       MegaHertz       Gauss      10(-4) cm-1
     1  C(13)              0.00000       0.00000       0.00000       0.00000
     2  C(13)              0.00000       0.00000       0.00000       0.00000
     3  C(13)              0.00000       0.00000       0.00000       0.00000
     4  C(13)              0.00000       0.00000       0.00000       0.00000
     5  N(14)              0.00000       0.00000       0.00000       0.00000
     6  C(13)              0.00000       0.00000       0.00000       0.00000
     7  C(13)              0.00000       0.00000       0.00000       0.00000
     8  O(17)              0.00000      -0.00000      -0.00000      -0.00000
     9  H(1)               0.00000       0.00000       0.00000       0.00000
    10  H(1)               0.00000       0.00000       0.00000       0.00000
    11  H(1)               0.00000       0.00000       0.00000       0.00000
    12  H(1)               0.00000       0.00000       0.00000       0.00000
    13  H(1)               0.00000       0.00000       0.00000       0.00000
    14  H(1)               0.00000       0.00000       0.00000       0.00000
    15  H(1)               0.00000       0.00000       0.00000       0.00000
    16  H(1)               0.00000       0.00000       0.00000       0.00000
    17  H(1)               0.00000       0.00000       0.00000       0.00000
    18  H(1)               0.00000       0.00000       0.00000       0.00000
    19  H(1)               0.00000       0.00000       0.00000       0.00000
    20  H(1)               0.00000       0.00000       0.00000       0.00000
    21  H(1)               0.00000       0.00000       0.00000       0.00000
 --------------------------------------------------------
       Center         ----  Spin Dipole Couplings  ----
                      3XX-RR        3YY-RR        3ZZ-RR
 --------------------------------------------------------
     1   Atom        0.000000      0.000000      0.000000
     2   Atom        0.000000      0.000000      0.000000
     3   Atom        0.000000      0.000000      0.000000
     4   Atom        0.000000      0.000000      0.000000
     5   Atom        0.000000      0.000000      0.000000
     6   Atom        0.000000      0.000000      0.000000
     7   Atom        0.000000      0.000000      0.000000
     8   Atom        0.000000      0.000000      0.000000
     9   Atom        0.000000      0.000000      0.000000
    10   Atom        0.000000      0.000000      0.000000
    11   Atom        0.000000      0.000000      0.000000
    12   Atom        0.000000      0.000000      0.000000
    13   Atom        0.000000      0.000000      0.000000
    14   Atom        0.000000      0.000000      0.000000
    15   Atom        0.000000      0.000000      0.000000
    16   Atom        0.000000      0.000000      0.000000
    17   Atom        0.000000      0.000000      0.000000
    18   Atom        0.000000      0.000000      0.000000
    19   Atom        0.000000      0.000000      0.000000
    20   Atom        0.000000      0.000000      0.000000
    21   Atom        0.000000      0.000000      0.000000
 --------------------------------------------------------
                        XY            XZ            YZ
 --------------------------------------------------------
     1   Atom        0.000000      0.000000      0.000000
     2   Atom        0.000000      0.000000      0.000000
     3   Atom        0.000000      0.000000      0.000000
     4   Atom        0.000000      0.000000      0.000000
     5   Atom        0.000000      0.000000      0.000000
     6   Atom        0.000000      0.000000      0.000000
     7   Atom        0.000000      0.000000      0.000000
     8   Atom        0.000000      0.000000      0.000000
     9   Atom        0.000000      0.000000      0.000000
    10   Atom        0.000000      0.000000      0.000000
    11   Atom        0.000000      0.000000      0.000000
    12   Atom        0.000000      0.000000      0.000000
    13   Atom        0.000000      0.000000      0.000000
    14   Atom        0.000000      0.000000      0.000000
    15   Atom        0.000000      0.000000      0.000000
    16   Atom        0.000000      0.000000      0.000000
    17   Atom        0.000000      0.000000      0.000000
    18   Atom        0.000000      0.000000      0.000000
    19   Atom        0.000000      0.000000      0.000000
    20   Atom        0.000000      0.000000      0.000000
    21   Atom        0.000000      0.000000      0.000000
 --------------------------------------------------------


 ---------------------------------------------------------------------------------
              Anisotropic Spin Dipole Couplings in Principal Axis System
 ---------------------------------------------------------------------------------

       Atom             a.u.   MegaHertz   Gauss  10(-4) cm-1        Axes

              Baa     0.0000     0.000     0.000     0.000  1.0000  0.0000  0.0000
     1 C(13)  Bbb     0.0000     0.000     0.000     0.000 -0.0000  1.0000  0.0000
              Bcc     0.0000     0.000     0.000     0.000  0.0000  0.0000  1.0000
 
              Baa     0.0000     0.000     0.000     0.000  1.0000  0.0000  0.0000
     2 C(13)  Bbb     0.0000     0.000     0.000     0.000 -0.0000  1.0000  0.0000
              Bcc     0.0000     0.000     0.000     0.000  0.0000  0.0000  1.0000
 
              Baa     0.0000     0.000     0.000     0.000  1.0000  0.0000  0.0000
     3 C(13)  Bbb     0.0000     0.000     0.000     0.000 -0.0000  1.0000  0.0000
              Bcc     0.0000     0.000     0.000     0.000  0.0000  0.0000  1.0000
 
              Baa     0.0000     0.000     0.000     0.000  1.0000  0.0000  0.0000
     4 C(13)  Bbb     0.0000     0.000     0.000     0.000 -0.0000  1.0000  0.0000
              Bcc     0.0000     0.000     0.000     0.000  0.0000  0.0000  1.0000
 
              Baa     0.0000     0.000     0.000     0.000  1.0000  0.0000  0.0000
     5 N(14)  Bbb     0.0000     0.000     0.000     0.000 -0.0000  1.0000  0.0000
              Bcc     0.0000     0.000     0.000     0.000  0.0000  0.0000  1.0000
 
              Baa     0.0000     0.000     0.000     0.000  1.0000  0.0000  0.0000
     6 C(13)  Bbb     0.0000     0.000     0.000     0.000 -0.0000  1.0000  0.0000
              Bcc     0.0000     0.000     0.000     0.000  0.0000  0.0000  1.0000
 
              Baa     0.0000     0.000     0.000     0.000  1.0000  0.0000  0.0000
     7 C(13)  Bbb     0.0000     0.000     0.000     0.000 -0.0000  1.0000  0.0000
              Bcc     0.0000     0.000     0.000     0.000  0.0000  0.0000  1.0000
 
              Baa     0.0000    -0.000    -0.000    -0.000  1.0000  0.0000  0.0000
     8 O(17)  Bbb     0.0000    -0.000    -0.000    -0.000 -0.0000  1.0000  0.0000
              Bcc     0.0000    -0.000    -0.000    -0.000  0.0000  0.0000  1.0000
 
              Baa     0.0000     0.000     0.000     0.000  1.0000  0.0000  0.0000
     9 H(1)   Bbb     0.0000     0.000     0.000     0.000 -0.0000  1.0000  0.0000
              Bcc     0.0000     0.000     0.000     0.000  0.0000  0.0000  1.0000
 
              Baa     0.0000     0.000     0.000     0.000  1.0000  0.0000  0.0000
    10 H(1)   Bbb     0.0000     0.000     0.000     0.000 -0.0000  1.0000  0.0000
              Bcc     0.0000     0.000     0.000     0.000  0.0000  0.0000  1.0000
 
              Baa     0.0000     0.000     0.000     0.000  1.0000  0.0000  0.0000
    11 H(1)   Bbb     0.0000     0.000     0.000     0.000 -0.0000  1.0000  0.0000
              Bcc     0.0000     0.000     0.000     0.000  0.0000  0.0000  1.0000
 
              Baa     0.0000     0.000     0.000     0.000  1.0000  0.0000  0.0000
    12 H(1)   Bbb     0.0000     0.000     0.000     0.000 -0.0000  1.0000  0.0000
              Bcc     0.0000     0.000     0.000     0.000  0.0000  0.0000  1.0000
 
              Baa     0.0000     0.000     0.000     0.000  1.0000  0.0000  0.0000
    13 H(1)   Bbb     0.0000     0.000     0.000     0.000 -0.0000  1.0000  0.0000
              Bcc     0.0000     0.000     0.000     0.000  0.0000  0.0000  1.0000
 
              Baa     0.0000     0.000     0.000     0.000  1.0000  0.0000  0.0000
    14 H(1)   Bbb     0.0000     0.000     0.000     0.000 -0.0000  1.0000  0.0000
              Bcc     0.0000     0.000     0.000     0.000  0.0000  0.0000  1.0000
 
              Baa     0.0000     0.000     0.000     0.000  1.0000  0.0000  0.0000
    15 H(1)   Bbb     0.0000     0.000     0.000     0.000 -0.0000  1.0000  0.0000
              Bcc     0.0000     0.000     0.000     0.000  0.0000  0.0000  1.0000
 
              Baa     0.0000     0.000     0.000     0.000  1.0000  0.0000  0.0000
    16 H(1)   Bbb     0.0000     0.000     0.000     0.000 -0.0000  1.0000  0.0000
              Bcc     0.0000     0.000     0.000     0.000  0.0000  0.0000  1.0000
 
              Baa     0.0000     0.000     0.000     0.000  1.0000  0.0000  0.0000
    17 H(1)   Bbb     0.0000     0.000     0.000     0.000 -0.0000  1.0000  0.0000
              Bcc     0.0000     0.000     0.000     0.000  0.0000  0.0000  1.0000
 
              Baa     0.0000     0.000     0.000     0.000  1.0000  0.0000  0.0000
    18 H(1)   Bbb     0.0000     0.000     0.000     0.000 -0.0000  1.0000  0.0000
              Bcc     0.0000     0.000     0.000     0.000  0.0000  0.0000  1.0000
 
              Baa     0.0000     0.000     0.000     0.000  1.0000  0.0000  0.0000
    19 H(1)   Bbb     0.0000     0.000     0.000     0.000 -0.0000  1.0000  0.0000
              Bcc     0.0000     0.000     0.000     0.000  0.0000  0.0000  1.0000
 
              Baa     0.0000     0.000     0.000     0.000  1.0000  0.0000  0.0000
    20 H(1)   Bbb     0.0000     0.000     0.000     0.000 -0.0000  1.0000  0.0000
              Bcc     0.0000     0.000     0.000     0.000  0.0000  0.0000  1.0000
 
              Baa     0.0000     0.000     0.000     0.000  1.0000  0.0000  0.0000
    21 H(1)   Bbb     0.0000     0.000     0.000     0.000 -0.0000  1.0000  0.0000
              Bcc     0.0000     0.000     0.000     0.000  0.0000  0.0000  1.0000
 

 ---------------------------------------------------------------------------------

 DoSCS=F DFT=T ScalE2(SS,OS)=  1.000000  1.000000
 Range of M.O.s used for correlation:     1   326
 NBasis=   326 NAE=    32 NBE=    32 NFC=     0 NFV=     0
 NROrb=    326 NOA=    32 NOB=    32 NVA=   294 NVB=   294

 **** Warning!!: The largest alpha MO coefficient is  0.15579216D+02


 **** Warning!!: The largest beta MO coefficient is  0.15579216D+02

 Keep R1 and R2 ints in memory in canonical form, NReq=3030466380.
    12 initial guesses have been made.
 Convergence on wavefunction:    0.001000000000000
 Iteration     1 Dimension    12 NMult     0 NNew     12
 CISAX will form    12 AO SS matrices at one time.
 New state      1 was old state      3
 Iteration     2 Dimension    24 NMult    12 NNew     12
 Iteration     3 Dimension    27 NMult    24 NNew      3
 Iteration     4 Dimension    30 NMult    27 NNew      3
 Iteration     5 Dimension    33 NMult    30 NNew      3
 Iteration     6 Dimension    36 NMult    33 NNew      3
 ***********************************************************************
 Stability analysis using <AA,BB:AA,BB> singles matrix:
 ***********************************************************************
 Ground to excited state transition densities written to RWF  633

 Eigenvectors of the stability matrix:
 
 Excited state symmetry could not be determined.
 Eigenvector   1:  3.000-?Sym  Eigenvalue= 0.1416337  <S**2>=2.000
     25A -> 34A       -0.14787
     28A -> 34A       -0.10500
     32A -> 33A       -0.14412
     32A -> 34A        0.59814
     32A -> 37A        0.19828
     25B -> 34B        0.14787
     28B -> 34B        0.10500
     32B -> 33B        0.14412
     32B -> 34B       -0.59814
     32B -> 37B       -0.19828
 The wavefunction is stable under the perturbations considered.
 The wavefunction is already stable.

 **********************************************************************

            Population analysis using the SCF Density.

 **********************************************************************

 Alpha  occ. eigenvalues --  -19.59156 -14.77931 -10.63443 -10.58333 -10.56997
 Alpha  occ. eigenvalues --  -10.55299 -10.53804 -10.53390  -1.16209  -1.05550
 Alpha  occ. eigenvalues --   -0.91490  -0.82014  -0.78854  -0.78367  -0.66507
 Alpha  occ. eigenvalues --   -0.64931  -0.59955  -0.56420  -0.54361  -0.53409
 Alpha  occ. eigenvalues --   -0.50003  -0.48982  -0.47414  -0.46157  -0.45515
 Alpha  occ. eigenvalues --   -0.45257  -0.44753  -0.41455  -0.40681  -0.39804
 Alpha  occ. eigenvalues --   -0.33456  -0.30477
 Alpha virt. eigenvalues --    0.05104   0.05749   0.07739   0.08980   0.10337
 Alpha virt. eigenvalues --    0.10902   0.12006   0.12977   0.13960   0.14334
 Alpha virt. eigenvalues --    0.14760   0.15638   0.17378   0.17455   0.18011
 Alpha virt. eigenvalues --    0.18226   0.20004   0.20892   0.21620   0.23455
 Alpha virt. eigenvalues --    0.24079   0.25215   0.26757   0.26883   0.28911
 Alpha virt. eigenvalues --    0.30392   0.32643   0.34268   0.35066   0.35621
 Alpha virt. eigenvalues --    0.36537   0.37515   0.38886   0.39974   0.40941
 Alpha virt. eigenvalues --    0.41657   0.43265   0.43590   0.44037   0.44620
 Alpha virt. eigenvalues --    0.45450   0.46761   0.48228   0.48966   0.49361
 Alpha virt. eigenvalues --    0.50432   0.51852   0.52279   0.52790   0.53323
 Alpha virt. eigenvalues --    0.54051   0.55121   0.56885   0.57401   0.58091
 Alpha virt. eigenvalues --    0.61159   0.63254   0.64467   0.64857   0.67368
 Alpha virt. eigenvalues --    0.68466   0.69354   0.71324   0.73629   0.74967
 Alpha virt. eigenvalues --    0.77208   0.81457   0.83514   0.85207   0.86012
 Alpha virt. eigenvalues --    0.87461   0.89138   0.92427   0.93452   0.94932
 Alpha virt. eigenvalues --    0.96884   0.99062   1.00146   1.02285   1.04111
 Alpha virt. eigenvalues --    1.05164   1.08334   1.08692   1.10245   1.11286
 Alpha virt. eigenvalues --    1.14033   1.15685   1.16856   1.18983   1.20699
 Alpha virt. eigenvalues --    1.23210   1.24857   1.27405   1.32320   1.34603
 Alpha virt. eigenvalues --    1.37791   1.41866   1.45800   1.47728   1.49186
 Alpha virt. eigenvalues --    1.51604   1.53409   1.54188   1.55584   1.57305
 Alpha virt. eigenvalues --    1.57521   1.58378   1.59264   1.61071   1.61416
 Alpha virt. eigenvalues --    1.62758   1.63918   1.64904   1.65275   1.65881
 Alpha virt. eigenvalues --    1.67974   1.69693   1.71033   1.72773   1.74235
 Alpha virt. eigenvalues --    1.75709   1.78727   1.79255   1.81015   1.84732
 Alpha virt. eigenvalues --    1.87865   1.90227   1.93730   1.95670   1.97535
 Alpha virt. eigenvalues --    1.99171   1.99569   2.02033   2.05298   2.07428
 Alpha virt. eigenvalues --    2.08284   2.08654   2.10366   2.12527   2.16326
 Alpha virt. eigenvalues --    2.17718   2.17819   2.19533   2.25108   2.27931
 Alpha virt. eigenvalues --    2.29642   2.30013   2.32327   2.33560   2.34385
 Alpha virt. eigenvalues --    2.36022   2.36894   2.37559   2.39593   2.40500
 Alpha virt. eigenvalues --    2.41591   2.43559   2.44721   2.46104   2.49919
 Alpha virt. eigenvalues --    2.50971   2.52490   2.53195   2.54385   2.56425
 Alpha virt. eigenvalues --    2.57766   2.58810   2.59960   2.62406   2.63289
 Alpha virt. eigenvalues --    2.63790   2.64955   2.67540   2.68880   2.70673
 Alpha virt. eigenvalues --    2.73460   2.77040   2.79084   2.79871   2.81337
 Alpha virt. eigenvalues --    2.82549   2.85064   2.86515   2.89643   2.92607
 Alpha virt. eigenvalues --    2.93213   2.99391   3.02961   3.04274   3.05764
 Alpha virt. eigenvalues --    3.07419   3.08127   3.09686   3.09743   3.11645
 Alpha virt. eigenvalues --    3.13632   3.13936   3.15420   3.17706   3.21249
 Alpha virt. eigenvalues --    3.22162   3.23064   3.24110   3.27077   3.28396
 Alpha virt. eigenvalues --    3.29811   3.31037   3.33694   3.34720   3.35073
 Alpha virt. eigenvalues --    3.36090   3.37772   3.39661   3.41847   3.43920
 Alpha virt. eigenvalues --    3.45469   3.47033   3.47752   3.51832   3.54573
 Alpha virt. eigenvalues --    3.55090   3.55435   3.57939   3.60382   3.61023
 Alpha virt. eigenvalues --    3.63267   3.64123   3.66422   3.67587   3.69790
 Alpha virt. eigenvalues --    3.72375   3.74824   3.81503   3.88747   3.90835
 Alpha virt. eigenvalues --    3.94817   3.97756   4.00171   4.00330   4.00927
 Alpha virt. eigenvalues --    4.05904   4.08702   4.11505   4.13017   4.17232
 Alpha virt. eigenvalues --    4.19679   4.25671   4.30424   4.32868   4.35590
 Alpha virt. eigenvalues --    4.37309   4.38233   4.40911   4.42527   4.47223
 Alpha virt. eigenvalues --    4.52754   4.60651   4.61340   4.68269   4.78222
 Alpha virt. eigenvalues --    4.80877   4.82786   4.88918   4.91863   4.99411
 Alpha virt. eigenvalues --    5.10214   5.18485   5.19473   5.24126   5.27414
 Alpha virt. eigenvalues --    5.27937   5.30631   5.51703   5.56707   5.65413
 Alpha virt. eigenvalues --    5.67076   5.71447   5.84604   6.12314   6.38641
 Alpha virt. eigenvalues --    6.39527   6.48132   6.59863   6.81656   6.99207
 Alpha virt. eigenvalues --    7.09092  22.43597  22.46288  22.50340  22.68213
 Alpha virt. eigenvalues --   22.72274  23.19079  32.92150  43.98006
  Beta  occ. eigenvalues --  -19.59156 -14.77931 -10.63443 -10.58333 -10.56997
  Beta  occ. eigenvalues --  -10.55299 -10.53804 -10.53390  -1.16209  -1.05550
  Beta  occ. eigenvalues --   -0.91490  -0.82014  -0.78854  -0.78367  -0.66507
  Beta  occ. eigenvalues --   -0.64931  -0.59955  -0.56420  -0.54361  -0.53409
  Beta  occ. eigenvalues --   -0.50003  -0.48982  -0.47414  -0.46157  -0.45515
  Beta  occ. eigenvalues --   -0.45257  -0.44753  -0.41455  -0.40681  -0.39804
  Beta  occ. eigenvalues --   -0.33456  -0.30477
  Beta virt. eigenvalues --    0.05104   0.05749   0.07739   0.08980   0.10337
  Beta virt. eigenvalues --    0.10902   0.12006   0.12977   0.13960   0.14334
  Beta virt. eigenvalues --    0.14760   0.15638   0.17378   0.17455   0.18011
  Beta virt. eigenvalues --    0.18226   0.20004   0.20892   0.21620   0.23455
  Beta virt. eigenvalues --    0.24079   0.25215   0.26757   0.26883   0.28911
  Beta virt. eigenvalues --    0.30392   0.32643   0.34268   0.35066   0.35621
  Beta virt. eigenvalues --    0.36537   0.37515   0.38886   0.39974   0.40941
  Beta virt. eigenvalues --    0.41657   0.43265   0.43590   0.44037   0.44620
  Beta virt. eigenvalues --    0.45450   0.46761   0.48228   0.48966   0.49361
  Beta virt. eigenvalues --    0.50432   0.51852   0.52279   0.52790   0.53323
  Beta virt. eigenvalues --    0.54051   0.55121   0.56885   0.57401   0.58091
  Beta virt. eigenvalues --    0.61159   0.63254   0.64467   0.64857   0.67368
  Beta virt. eigenvalues --    0.68466   0.69354   0.71324   0.73629   0.74967
  Beta virt. eigenvalues --    0.77208   0.81457   0.83514   0.85207   0.86012
  Beta virt. eigenvalues --    0.87461   0.89138   0.92427   0.93452   0.94932
  Beta virt. eigenvalues --    0.96884   0.99062   1.00146   1.02285   1.04111
  Beta virt. eigenvalues --    1.05164   1.08334   1.08692   1.10245   1.11286
  Beta virt. eigenvalues --    1.14033   1.15685   1.16856   1.18983   1.20699
  Beta virt. eigenvalues --    1.23210   1.24857   1.27405   1.32320   1.34603
  Beta virt. eigenvalues --    1.37791   1.41866   1.45800   1.47728   1.49186
  Beta virt. eigenvalues --    1.51604   1.53409   1.54188   1.55584   1.57305
  Beta virt. eigenvalues --    1.57521   1.58378   1.59264   1.61071   1.61416
  Beta virt. eigenvalues --    1.62758   1.63918   1.64904   1.65275   1.65881
  Beta virt. eigenvalues --    1.67974   1.69693   1.71033   1.72773   1.74235
  Beta virt. eigenvalues --    1.75709   1.78727   1.79255   1.81015   1.84732
  Beta virt. eigenvalues --    1.87865   1.90227   1.93730   1.95670   1.97535
  Beta virt. eigenvalues --    1.99171   1.99569   2.02033   2.05298   2.07428
  Beta virt. eigenvalues --    2.08284   2.08654   2.10366   2.12527   2.16326
  Beta virt. eigenvalues --    2.17718   2.17819   2.19533   2.25108   2.27931
  Beta virt. eigenvalues --    2.29642   2.30013   2.32327   2.33560   2.34385
  Beta virt. eigenvalues --    2.36022   2.36894   2.37559   2.39593   2.40500
  Beta virt. eigenvalues --    2.41591   2.43559   2.44721   2.46104   2.49919
  Beta virt. eigenvalues --    2.50971   2.52490   2.53195   2.54385   2.56425
  Beta virt. eigenvalues --    2.57766   2.58810   2.59960   2.62406   2.63289
  Beta virt. eigenvalues --    2.63790   2.64955   2.67540   2.68880   2.70673
  Beta virt. eigenvalues --    2.73460   2.77040   2.79084   2.79871   2.81337
  Beta virt. eigenvalues --    2.82549   2.85064   2.86515   2.89643   2.92607
  Beta virt. eigenvalues --    2.93213   2.99391   3.02961   3.04274   3.05764
  Beta virt. eigenvalues --    3.07419   3.08127   3.09686   3.09743   3.11645
  Beta virt. eigenvalues --    3.13632   3.13936   3.15420   3.17706   3.21249
  Beta virt. eigenvalues --    3.22162   3.23064   3.24110   3.27077   3.28396
  Beta virt. eigenvalues --    3.29811   3.31037   3.33694   3.34720   3.35073
  Beta virt. eigenvalues --    3.36090   3.37772   3.39661   3.41847   3.43920
  Beta virt. eigenvalues --    3.45469   3.47033   3.47752   3.51832   3.54573
  Beta virt. eigenvalues --    3.55090   3.55435   3.57939   3.60382   3.61023
  Beta virt. eigenvalues --    3.63267   3.64123   3.66422   3.67587   3.69790
  Beta virt. eigenvalues --    3.72375   3.74824   3.81503   3.88747   3.90835
  Beta virt. eigenvalues --    3.94817   3.97756   4.00171   4.00330   4.00927
  Beta virt. eigenvalues --    4.05904   4.08702   4.11505   4.13017   4.17232
  Beta virt. eigenvalues --    4.19679   4.25671   4.30424   4.32868   4.35590
  Beta virt. eigenvalues --    4.37309   4.38233   4.40911   4.42527   4.47223
  Beta virt. eigenvalues --    4.52754   4.60651   4.61340   4.68269   4.78222
  Beta virt. eigenvalues --    4.80877   4.82786   4.88918   4.91863   4.99411
  Beta virt. eigenvalues --    5.10214   5.18485   5.19473   5.24126   5.27414
  Beta virt. eigenvalues --    5.27937   5.30631   5.51703   5.56707   5.65413
  Beta virt. eigenvalues --    5.67076   5.71447   5.84604   6.12314   6.38641
  Beta virt. eigenvalues --    6.39527   6.48132   6.59863   6.81656   6.99207
  Beta virt. eigenvalues --    7.09092  22.43597  22.46288  22.50340  22.68213
  Beta virt. eigenvalues --   22.72274  23.19079  32.92150  43.98006
          Condensed to atoms (all electrons):
               1          2          3          4          5          6
     1  C    5.076491   0.275090  -0.058466  -0.065392   0.010687  -0.000255
     2  C    0.275090   5.576103   0.160022   0.095622  -0.109963   0.025183
     3  C   -0.058466   0.160022   5.196969  -0.033485   0.051258  -0.012213
     4  C   -0.065392   0.095622  -0.033485   5.357202   0.220761  -0.060849
     5  N    0.010687  -0.109963   0.051258   0.220761   6.902692   0.215560
     6  C   -0.000255   0.025183  -0.012213  -0.060849   0.215560   5.010342
     7  C   -0.000466  -0.003893  -0.003324  -0.037125   0.286549  -0.044272
     8  O   -0.000014   0.000904  -0.001354   0.001678  -0.127370  -0.012152
     9  H    0.412669  -0.046548   0.012305  -0.003116   0.000087   0.000001
    10  H    0.407986  -0.021111  -0.014946  -0.017740   0.000011  -0.000018
    11  H    0.422205  -0.047244  -0.007159   0.013029  -0.000571   0.000019
    12  H   -0.039792   0.431227  -0.064385  -0.043915  -0.005679  -0.001356
    13  H   -0.006238  -0.036466   0.410810   0.009670   0.000177  -0.000088
    14  H    0.010366  -0.033122   0.414253  -0.015523   0.002432  -0.000072
    15  H   -0.010849  -0.037267   0.403067   0.003863  -0.004806   0.000462
    16  H    0.000010  -0.041663  -0.014570   0.432857  -0.039421   0.006814
    17  H    0.002341  -0.106827   0.015161   0.457554  -0.037628  -0.007851
    18  H    0.000037  -0.002249   0.000363   0.009385  -0.032684   0.404026
    19  H   -0.000071  -0.019545   0.002324   0.011338  -0.045296   0.406800
    20  H    0.000340   0.032559  -0.007482  -0.024830  -0.047318   0.421572
    21  H    0.000253  -0.008694  -0.000557   0.016104  -0.135080   0.008456
               7          8          9         10         11         12
     1  C   -0.000466  -0.000014   0.412669   0.407986   0.422205  -0.039792
     2  C   -0.003893   0.000904  -0.046548  -0.021111  -0.047244   0.431227
     3  C   -0.003324  -0.001354   0.012305  -0.014946  -0.007159  -0.064385
     4  C   -0.037125   0.001678  -0.003116  -0.017740   0.013029  -0.043915
     5  N    0.286549  -0.127370   0.000087   0.000011  -0.000571  -0.005679
     6  C   -0.044272  -0.012152   0.000001  -0.000018   0.000019  -0.001356
     7  C    4.564574   0.648256   0.000036  -0.000020  -0.000006  -0.000460
     8  O    0.648256   7.891288   0.000000   0.000001  -0.000000  -0.000003
     9  H    0.000036   0.000000   0.532921  -0.027902  -0.020423  -0.006205
    10  H   -0.000020   0.000001  -0.027902   0.536296  -0.026152   0.009505
    11  H   -0.000006  -0.000000  -0.020423  -0.026152   0.520726  -0.006405
    12  H   -0.000460  -0.000003  -0.006205   0.009505  -0.006405   0.587037
    13  H    0.000027  -0.000005  -0.000102  -0.000102   0.002542  -0.005564
    14  H   -0.003443   0.000383  -0.000411  -0.000141   0.000013  -0.004351
    15  H   -0.000387   0.000046  -0.000160   0.005445  -0.000158   0.009100
    16  H   -0.014752   0.000329  -0.000751   0.004921  -0.000193   0.006365
    17  H    0.002087  -0.000010   0.003675   0.000228  -0.000711  -0.001626
    18  H   -0.015632   0.021814   0.000001   0.000001  -0.000002   0.000221
    19  H    0.004921   0.001068   0.000061   0.000007  -0.000016   0.001424
    20  H    0.002092   0.000731  -0.000021  -0.000045   0.000048  -0.009465
    21  H    0.444487  -0.054653   0.000024  -0.000062  -0.000008  -0.000166
              13         14         15         16         17         18
     1  C   -0.006238   0.010366  -0.010849   0.000010   0.002341   0.000037
     2  C   -0.036466  -0.033122  -0.037267  -0.041663  -0.106827  -0.002249
     3  C    0.410810   0.414253   0.403067  -0.014570   0.015161   0.000363
     4  C    0.009670  -0.015523   0.003863   0.432857   0.457554   0.009385
     5  N    0.000177   0.002432  -0.004806  -0.039421  -0.037628  -0.032684
     6  C   -0.000088  -0.000072   0.000462   0.006814  -0.007851   0.404026
     7  C    0.000027  -0.003443  -0.000387  -0.014752   0.002087  -0.015632
     8  O   -0.000005   0.000383   0.000046   0.000329  -0.000010   0.021814
     9  H   -0.000102  -0.000411  -0.000160  -0.000751   0.003675   0.000001
    10  H   -0.000102  -0.000141   0.005445   0.004921   0.000228   0.000001
    11  H    0.002542   0.000013  -0.000158  -0.000193  -0.000711  -0.000002
    12  H   -0.005564  -0.004351   0.009100   0.006365  -0.001626   0.000221
    13  H    0.518721  -0.018828  -0.024718  -0.000259  -0.000355  -0.000003
    14  H   -0.018828   0.512735  -0.026207   0.000877  -0.000488  -0.000177
    15  H   -0.024718  -0.026207   0.534149   0.002766   0.000022   0.000011
    16  H   -0.000259   0.000877   0.002766   0.494945  -0.013536  -0.000119
    17  H   -0.000355  -0.000488   0.000022  -0.013536   0.517155   0.000464
    18  H   -0.000003  -0.000177   0.000011  -0.000119   0.000464   0.465087
    19  H   -0.000012  -0.000082  -0.000024   0.000455   0.004031  -0.015017
    20  H   -0.000009   0.001235  -0.000025  -0.000552  -0.001270  -0.024147
    21  H   -0.000132  -0.000327   0.000574  -0.000369   0.001562   0.002551
              19         20         21
     1  C   -0.000071   0.000340   0.000253
     2  C   -0.019545   0.032559  -0.008694
     3  C    0.002324  -0.007482  -0.000557
     4  C    0.011338  -0.024830   0.016104
     5  N   -0.045296  -0.047318  -0.135080
     6  C    0.406800   0.421572   0.008456
     7  C    0.004921   0.002092   0.444487
     8  O    0.001068   0.000731  -0.054653
     9  H    0.000061  -0.000021   0.000024
    10  H    0.000007  -0.000045  -0.000062
    11  H   -0.000016   0.000048  -0.000008
    12  H    0.001424  -0.009465  -0.000166
    13  H   -0.000012  -0.000009  -0.000132
    14  H   -0.000082   0.001235  -0.000327
    15  H   -0.000024  -0.000025   0.000574
    16  H    0.000455  -0.000552  -0.000369
    17  H    0.004031  -0.001270   0.001562
    18  H   -0.015017  -0.024147   0.002551
    19  H    0.542513  -0.044048   0.000108
    20  H   -0.044048   0.547957  -0.000348
    21  H    0.000108  -0.000348   0.636451
          Atomic-Atomic Spin Densities.
               1          2          3          4          5          6
     1  C    0.000000   0.000000   0.000000   0.000000   0.000000   0.000000
     2  C    0.000000   0.000000   0.000000   0.000000   0.000000   0.000000
     3  C    0.000000   0.000000   0.000000   0.000000   0.000000   0.000000
     4  C    0.000000   0.000000   0.000000   0.000000   0.000000   0.000000
     5  N    0.000000   0.000000   0.000000   0.000000   0.000000   0.000000
     6  C    0.000000   0.000000   0.000000   0.000000   0.000000   0.000000
     7  C    0.000000   0.000000   0.000000   0.000000   0.000000   0.000000
     8  O    0.000000   0.000000   0.000000   0.000000   0.000000   0.000000
     9  H    0.000000   0.000000   0.000000   0.000000   0.000000   0.000000
    10  H    0.000000   0.000000   0.000000   0.000000   0.000000   0.000000
    11  H    0.000000   0.000000   0.000000   0.000000   0.000000   0.000000
    12  H    0.000000   0.000000   0.000000   0.000000   0.000000   0.000000
    13  H    0.000000   0.000000   0.000000   0.000000   0.000000   0.000000
    14  H    0.000000   0.000000   0.000000   0.000000   0.000000   0.000000
    15  H    0.000000   0.000000   0.000000   0.000000   0.000000   0.000000
    16  H    0.000000   0.000000   0.000000   0.000000   0.000000   0.000000
    17  H    0.000000   0.000000   0.000000   0.000000   0.000000   0.000000
    18  H    0.000000   0.000000   0.000000   0.000000   0.000000   0.000000
    19  H    0.000000   0.000000   0.000000   0.000000   0.000000   0.000000
    20  H    0.000000   0.000000   0.000000   0.000000   0.000000   0.000000
    21  H    0.000000   0.000000   0.000000   0.000000   0.000000   0.000000
               7          8          9         10         11         12
     1  C    0.000000   0.000000   0.000000   0.000000   0.000000   0.000000
     2  C    0.000000   0.000000   0.000000   0.000000   0.000000   0.000000
     3  C    0.000000   0.000000   0.000000   0.000000   0.000000   0.000000
     4  C    0.000000   0.000000   0.000000   0.000000   0.000000   0.000000
     5  N    0.000000   0.000000   0.000000   0.000000   0.000000   0.000000
     6  C    0.000000   0.000000   0.000000   0.000000   0.000000   0.000000
     7  C    0.000000   0.000000   0.000000   0.000000   0.000000   0.000000
     8  O    0.000000   0.000000   0.000000   0.000000   0.000000   0.000000
     9  H    0.000000   0.000000   0.000000   0.000000   0.000000   0.000000
    10  H    0.000000   0.000000   0.000000   0.000000   0.000000   0.000000
    11  H    0.000000   0.000000   0.000000   0.000000   0.000000   0.000000
    12  H    0.000000   0.000000   0.000000   0.000000   0.000000   0.000000
    13  H    0.000000   0.000000   0.000000   0.000000   0.000000   0.000000
    14  H    0.000000   0.000000   0.000000   0.000000   0.000000   0.000000
    15  H    0.000000   0.000000   0.000000   0.000000   0.000000   0.000000
    16  H    0.000000   0.000000   0.000000   0.000000   0.000000   0.000000
    17  H    0.000000   0.000000   0.000000   0.000000   0.000000   0.000000
    18  H    0.000000   0.000000   0.000000   0.000000   0.000000   0.000000
    19  H    0.000000   0.000000   0.000000   0.000000   0.000000   0.000000
    20  H    0.000000   0.000000   0.000000   0.000000   0.000000   0.000000
    21  H    0.000000   0.000000   0.000000   0.000000   0.000000   0.000000
              13         14         15         16         17         18
     1  C    0.000000   0.000000   0.000000   0.000000   0.000000   0.000000
     2  C    0.000000   0.000000   0.000000   0.000000   0.000000   0.000000
     3  C    0.000000   0.000000   0.000000   0.000000   0.000000   0.000000
     4  C    0.000000   0.000000   0.000000   0.000000   0.000000   0.000000
     5  N    0.000000   0.000000   0.000000   0.000000   0.000000   0.000000
     6  C    0.000000   0.000000   0.000000   0.000000   0.000000   0.000000
     7  C    0.000000   0.000000   0.000000   0.000000   0.000000   0.000000
     8  O    0.000000   0.000000   0.000000   0.000000   0.000000   0.000000
     9  H    0.000000   0.000000   0.000000   0.000000   0.000000   0.000000
    10  H    0.000000   0.000000   0.000000   0.000000   0.000000   0.000000
    11  H    0.000000   0.000000   0.000000   0.000000   0.000000   0.000000
    12  H    0.000000   0.000000   0.000000   0.000000   0.000000   0.000000
    13  H    0.000000   0.000000   0.000000   0.000000   0.000000   0.000000
    14  H    0.000000   0.000000   0.000000   0.000000   0.000000   0.000000
    15  H    0.000000   0.000000   0.000000   0.000000   0.000000   0.000000
    16  H    0.000000   0.000000   0.000000   0.000000   0.000000   0.000000
    17  H    0.000000   0.000000   0.000000   0.000000   0.000000   0.000000
    18  H    0.000000   0.000000   0.000000   0.000000   0.000000   0.000000
    19  H    0.000000   0.000000   0.000000   0.000000   0.000000   0.000000
    20  H    0.000000   0.000000   0.000000   0.000000   0.000000   0.000000
    21  H    0.000000   0.000000   0.000000   0.000000   0.000000   0.000000
              19         20         21
     1  C    0.000000   0.000000   0.000000
     2  C    0.000000   0.000000   0.000000
     3  C    0.000000   0.000000   0.000000
     4  C    0.000000   0.000000   0.000000
     5  N    0.000000   0.000000   0.000000
     6  C    0.000000   0.000000   0.000000
     7  C    0.000000   0.000000   0.000000
     8  O    0.000000   0.000000   0.000000
     9  H    0.000000   0.000000   0.000000
    10  H    0.000000   0.000000   0.000000
    11  H    0.000000   0.000000   0.000000
    12  H    0.000000   0.000000   0.000000
    13  H    0.000000   0.000000   0.000000
    14  H    0.000000   0.000000   0.000000
    15  H    0.000000   0.000000   0.000000
    16  H    0.000000   0.000000   0.000000
    17  H    0.000000   0.000000   0.000000
    18  H    0.000000   0.000000   0.000000
    19  H    0.000000   0.000000   0.000000
    20  H    0.000000   0.000000   0.000000
    21  H    0.000000   0.000000   0.000000
 Mulliken charges and spin densities:
               1          2
     1  C   -0.436931   0.000000
     2  C   -0.082117   0.000000
     3  C   -0.448590   0.000000
     4  C   -0.327088   0.000000
     5  N   -0.104398   0.000000
     6  C   -0.360110   0.000000
     7  C    0.170752   0.000000
     8  O   -0.370936   0.000000
     9  H    0.143857   0.000000
    10  H    0.143839   0.000000
    11  H    0.150466   0.000000
    12  H    0.144493   0.000000
    13  H    0.150935   0.000000
    14  H    0.160878   0.000000
    15  H    0.145097   0.000000
    16  H    0.175846   0.000000
    17  H    0.166021   0.000000
    18  H    0.186069   0.000000
    19  H    0.149062   0.000000
    20  H    0.153027   0.000000
    21  H    0.089829   0.000000
 Sum of Mulliken charges =  -0.00000   0.00000
 Mulliken charges and spin densities with hydrogens summed into heavy atoms:
               1          2
     1  C    0.001231   0.000000
     2  C    0.062375   0.000000
     3  C    0.008320   0.000000
     4  C    0.014779   0.000000
     5  N   -0.104398   0.000000
     6  C    0.128048   0.000000
     7  C    0.260581   0.000000
     8  O   -0.370936   0.000000
 Electronic spatial extent (au):  <R**2>=           1246.5884
 Charge=             -0.0000 electrons
 Dipole moment (field-independent basis, Debye):
    X=             -2.6744    Y=             -2.2266    Z=              2.2732  Tot=              4.1566
 Quadrupole moment (field-independent basis, Debye-Ang):
   XX=            -57.3756   YY=            -52.1508   ZZ=            -53.9330
   XY=             -5.8998   XZ=              4.4244   YZ=              4.2073
 Traceless Quadrupole moment (field-independent basis, Debye-Ang):
   XX=             -2.8891   YY=              2.3357   ZZ=              0.5534
   XY=             -5.8998   XZ=              4.4244   YZ=              4.2073
 Octapole moment (field-independent basis, Debye-Ang**2):
  XXX=              3.8909  YYY=              7.8162  ZZZ=             -3.7349  XYY=             -0.8581
  XXY=            -13.3290  XXZ=              6.5328  XZZ=              1.4067  YZZ=             -2.9117
  YYZ=              4.4535  XYZ=              8.1577
 Hexadecapole moment (field-independent basis, Debye-Ang**3):
 XXXX=           -989.5211 YYYY=           -362.7842 ZZZZ=           -363.5323 XXXY=           -140.1037
 XXXZ=            166.3839 YYYX=           -127.5723 YYYZ=             75.9455 ZZZX=            149.9681
 ZZZY=             69.3878 XXYY=           -236.9108 XXZZ=           -237.9213 YYZZ=           -125.4217
 XXYZ=             44.9996 YYXZ=             60.7484 ZZXY=            -50.7024
 N-N= 3.986993475354D+02 E-N=-1.649696088392D+03  KE= 3.644513086838D+02
                          Isotropic Fermi Contact Couplings
        Atom                 a.u.       MegaHertz       Gauss      10(-4) cm-1
     1  C(13)              0.00000       0.00000       0.00000       0.00000
     2  C(13)              0.00000       0.00000       0.00000       0.00000
     3  C(13)              0.00000       0.00000       0.00000       0.00000
     4  C(13)              0.00000       0.00000       0.00000       0.00000
     5  N(14)              0.00000       0.00000       0.00000       0.00000
     6  C(13)              0.00000       0.00000       0.00000       0.00000
     7  C(13)              0.00000       0.00000       0.00000       0.00000
     8  O(17)              0.00000      -0.00000      -0.00000      -0.00000
     9  H(1)               0.00000       0.00000       0.00000       0.00000
    10  H(1)               0.00000       0.00000       0.00000       0.00000
    11  H(1)               0.00000       0.00000       0.00000       0.00000
    12  H(1)               0.00000       0.00000       0.00000       0.00000
    13  H(1)               0.00000       0.00000       0.00000       0.00000
    14  H(1)               0.00000       0.00000       0.00000       0.00000
    15  H(1)               0.00000       0.00000       0.00000       0.00000
    16  H(1)               0.00000       0.00000       0.00000       0.00000
    17  H(1)               0.00000       0.00000       0.00000       0.00000
    18  H(1)               0.00000       0.00000       0.00000       0.00000
    19  H(1)               0.00000       0.00000       0.00000       0.00000
    20  H(1)               0.00000       0.00000       0.00000       0.00000
    21  H(1)               0.00000       0.00000       0.00000       0.00000
 --------------------------------------------------------
       Center         ----  Spin Dipole Couplings  ----
                      3XX-RR        3YY-RR        3ZZ-RR
 --------------------------------------------------------
     1   Atom        0.000000      0.000000      0.000000
     2   Atom        0.000000      0.000000      0.000000
     3   Atom        0.000000      0.000000      0.000000
     4   Atom        0.000000      0.000000      0.000000
     5   Atom        0.000000      0.000000      0.000000
     6   Atom        0.000000      0.000000      0.000000
     7   Atom        0.000000      0.000000      0.000000
     8   Atom        0.000000      0.000000      0.000000
     9   Atom        0.000000      0.000000      0.000000
    10   Atom        0.000000      0.000000      0.000000
    11   Atom        0.000000      0.000000      0.000000
    12   Atom        0.000000      0.000000      0.000000
    13   Atom        0.000000      0.000000      0.000000
    14   Atom        0.000000      0.000000      0.000000
    15   Atom        0.000000      0.000000      0.000000
    16   Atom        0.000000      0.000000      0.000000
    17   Atom        0.000000      0.000000      0.000000
    18   Atom        0.000000      0.000000      0.000000
    19   Atom        0.000000      0.000000      0.000000
    20   Atom        0.000000      0.000000      0.000000
    21   Atom        0.000000      0.000000      0.000000
 --------------------------------------------------------
                        XY            XZ            YZ
 --------------------------------------------------------
     1   Atom        0.000000      0.000000      0.000000
     2   Atom        0.000000      0.000000      0.000000
     3   Atom        0.000000      0.000000      0.000000
     4   Atom        0.000000      0.000000      0.000000
     5   Atom        0.000000      0.000000      0.000000
     6   Atom        0.000000      0.000000      0.000000
     7   Atom        0.000000      0.000000      0.000000
     8   Atom        0.000000      0.000000      0.000000
     9   Atom        0.000000      0.000000      0.000000
    10   Atom        0.000000      0.000000      0.000000
    11   Atom        0.000000      0.000000      0.000000
    12   Atom        0.000000      0.000000      0.000000
    13   Atom        0.000000      0.000000      0.000000
    14   Atom        0.000000      0.000000      0.000000
    15   Atom        0.000000      0.000000      0.000000
    16   Atom        0.000000      0.000000      0.000000
    17   Atom        0.000000      0.000000      0.000000
    18   Atom        0.000000      0.000000      0.000000
    19   Atom        0.000000      0.000000      0.000000
    20   Atom        0.000000      0.000000      0.000000
    21   Atom        0.000000      0.000000      0.000000
 --------------------------------------------------------


 ---------------------------------------------------------------------------------
              Anisotropic Spin Dipole Couplings in Principal Axis System
 ---------------------------------------------------------------------------------

       Atom             a.u.   MegaHertz   Gauss  10(-4) cm-1        Axes

              Baa     0.0000     0.000     0.000     0.000  1.0000  0.0000  0.0000
     1 C(13)  Bbb     0.0000     0.000     0.000     0.000 -0.0000  1.0000  0.0000
              Bcc     0.0000     0.000     0.000     0.000  0.0000  0.0000  1.0000
 
              Baa     0.0000     0.000     0.000     0.000  1.0000  0.0000  0.0000
     2 C(13)  Bbb     0.0000     0.000     0.000     0.000 -0.0000  1.0000  0.0000
              Bcc     0.0000     0.000     0.000     0.000  0.0000  0.0000  1.0000
 
              Baa     0.0000     0.000     0.000     0.000  1.0000  0.0000  0.0000
     3 C(13)  Bbb     0.0000     0.000     0.000     0.000 -0.0000  1.0000  0.0000
              Bcc     0.0000     0.000     0.000     0.000  0.0000  0.0000  1.0000
 
              Baa     0.0000     0.000     0.000     0.000  1.0000  0.0000  0.0000
     4 C(13)  Bbb     0.0000     0.000     0.000     0.000 -0.0000  1.0000  0.0000
              Bcc     0.0000     0.000     0.000     0.000  0.0000  0.0000  1.0000
 
              Baa     0.0000     0.000     0.000     0.000  1.0000  0.0000  0.0000
     5 N(14)  Bbb     0.0000     0.000     0.000     0.000 -0.0000  1.0000  0.0000
              Bcc     0.0000     0.000     0.000     0.000  0.0000  0.0000  1.0000
 
              Baa     0.0000     0.000     0.000     0.000  1.0000  0.0000  0.0000
     6 C(13)  Bbb     0.0000     0.000     0.000     0.000 -0.0000  1.0000  0.0000
              Bcc     0.0000     0.000     0.000     0.000  0.0000  0.0000  1.0000
 
              Baa     0.0000     0.000     0.000     0.000  1.0000  0.0000  0.0000
     7 C(13)  Bbb     0.0000     0.000     0.000     0.000 -0.0000  1.0000  0.0000
              Bcc     0.0000     0.000     0.000     0.000  0.0000  0.0000  1.0000
 
              Baa     0.0000    -0.000    -0.000    -0.000  1.0000  0.0000  0.0000
     8 O(17)  Bbb     0.0000    -0.000    -0.000    -0.000 -0.0000  1.0000  0.0000
              Bcc     0.0000    -0.000    -0.000    -0.000  0.0000  0.0000  1.0000
 
              Baa     0.0000     0.000     0.000     0.000  1.0000  0.0000  0.0000
     9 H(1)   Bbb     0.0000     0.000     0.000     0.000 -0.0000  1.0000  0.0000
              Bcc     0.0000     0.000     0.000     0.000  0.0000  0.0000  1.0000
 
              Baa     0.0000     0.000     0.000     0.000  1.0000  0.0000  0.0000
    10 H(1)   Bbb     0.0000     0.000     0.000     0.000 -0.0000  1.0000  0.0000
              Bcc     0.0000     0.000     0.000     0.000  0.0000  0.0000  1.0000
 
              Baa     0.0000     0.000     0.000     0.000  1.0000  0.0000  0.0000
    11 H(1)   Bbb     0.0000     0.000     0.000     0.000 -0.0000  1.0000  0.0000
              Bcc     0.0000     0.000     0.000     0.000  0.0000  0.0000  1.0000
 
              Baa     0.0000     0.000     0.000     0.000  1.0000  0.0000  0.0000
    12 H(1)   Bbb     0.0000     0.000     0.000     0.000 -0.0000  1.0000  0.0000
              Bcc     0.0000     0.000     0.000     0.000  0.0000  0.0000  1.0000
 
              Baa     0.0000     0.000     0.000     0.000  1.0000  0.0000  0.0000
    13 H(1)   Bbb     0.0000     0.000     0.000     0.000 -0.0000  1.0000  0.0000
              Bcc     0.0000     0.000     0.000     0.000  0.0000  0.0000  1.0000
 
              Baa     0.0000     0.000     0.000     0.000  1.0000  0.0000  0.0000
    14 H(1)   Bbb     0.0000     0.000     0.000     0.000 -0.0000  1.0000  0.0000
              Bcc     0.0000     0.000     0.000     0.000  0.0000  0.0000  1.0000
 
              Baa     0.0000     0.000     0.000     0.000  1.0000  0.0000  0.0000
    15 H(1)   Bbb     0.0000     0.000     0.000     0.000 -0.0000  1.0000  0.0000
              Bcc     0.0000     0.000     0.000     0.000  0.0000  0.0000  1.0000
 
              Baa     0.0000     0.000     0.000     0.000  1.0000  0.0000  0.0000
    16 H(1)   Bbb     0.0000     0.000     0.000     0.000 -0.0000  1.0000  0.0000
              Bcc     0.0000     0.000     0.000     0.000  0.0000  0.0000  1.0000
 
              Baa     0.0000     0.000     0.000     0.000  1.0000  0.0000  0.0000
    17 H(1)   Bbb     0.0000     0.000     0.000     0.000 -0.0000  1.0000  0.0000
              Bcc     0.0000     0.000     0.000     0.000  0.0000  0.0000  1.0000
 
              Baa     0.0000     0.000     0.000     0.000  1.0000  0.0000  0.0000
    18 H(1)   Bbb     0.0000     0.000     0.000     0.000 -0.0000  1.0000  0.0000
              Bcc     0.0000     0.000     0.000     0.000  0.0000  0.0000  1.0000
 
              Baa     0.0000     0.000     0.000     0.000  1.0000  0.0000  0.0000
    19 H(1)   Bbb     0.0000     0.000     0.000     0.000 -0.0000  1.0000  0.0000
              Bcc     0.0000     0.000     0.000     0.000  0.0000  0.0000  1.0000
 
              Baa     0.0000     0.000     0.000     0.000  1.0000  0.0000  0.0000
    20 H(1)   Bbb     0.0000     0.000     0.000     0.000 -0.0000  1.0000  0.0000
              Bcc     0.0000     0.000     0.000     0.000  0.0000  0.0000  1.0000
 
              Baa     0.0000     0.000     0.000     0.000  1.0000  0.0000  0.0000
    21 H(1)   Bbb     0.0000     0.000     0.000     0.000 -0.0000  1.0000  0.0000
              Bcc     0.0000     0.000     0.000     0.000  0.0000  0.0000  1.0000
 

 ---------------------------------------------------------------------------------

 Unable to Open any file for archive entry.
 1\1\GINC-R1I3N10\Stability\UM062X\def2TZVP\C6H13N1O1\UZG38MN\11-Sep-20
 23\0\\# um062x Def2TZVP stable=opt NoSymm\\r0_C6H13NO_sp_g16\\0,1\C,0,
 -2.46022214,-0.87465115,1.54063937\C,0,-1.40964114,-0.76648415,0.43855
 137\C,0,-1.93337314,0.00910485,-0.76584163\C,0,-0.14086014,-0.11534415
 ,1.00283537\N,0,0.91939386,0.05510985,0.03579937\C,0,1.52991786,-1.123
 28115,-0.53782263\C,0,1.30690186,1.28886785,-0.39361463\O,0,2.15140886
 ,1.50758085,-1.22771563\H,0,-2.07945814,-1.43389615,2.40807137\H,0,-2.
 75990514,0.12668285,1.88903837\H,0,-3.36261714,-1.38624815,1.17777237\
 H,0,-1.15082114,-1.78899515,0.11227437\H,0,-2.84680114,-0.45337815,-1.
 16620263\H,0,-1.19012214,0.05150785,-1.57509363\H,0,-2.17866614,1.0451
 5085,-0.47960563\H,0,-0.39817514,0.88039385,1.40102637\H,0,0.23215586,
 -0.71494015,1.85268837\H,0,2.42203686,-0.81021515,-1.09177963\H,0,1.81
 483086,-1.82734115,0.25900837\H,0,0.84709286,-1.63924315,-1.23292963\H
 ,0,0.75069886,2.10303485,0.12707037\\Version=ES64L-G16RevC.01\HF=-366.
 4222864\S2=0.\S2-1=0.\S2A=0.\RMSD=4.171e-09\Dipole=-1.0521724,-0.87599
 77,0.8943454\Quadrupole=-2.1480103,1.736539,0.4114713,-4.3863769,3.289
 4285,3.1279932\PG=C01 [X(C6H13N1O1)]\\@
 The archive entry for this job was punched.


 IF I HAVE SEEN FARTHER, IT IS BY STANDING ON THE
 SHOULDERS OF GIANTS. -- SIR ISAAC NEWTON
 Job cpu time:       0 days  1 hours 28 minutes 44.0 seconds.
 Elapsed time:       0 days  0 hours  3 minutes 43.9 seconds.
 File lengths (MBytes):  RWF=   1616 Int=      0 D2E=      0 Chk=     32 Scr=     32
 Normal termination of Gaussian 16 at Mon Sep 11 12:27:56 2023.
