 Entering Gaussian System, Link 0=/gpfslocalsup/prod/g16/rev-C01/g16/g16
 Input=r1_C4H7N2O_sp_g16.com
 Output=r1_C4H7N2O_sp_g16.log
 Initial command:
 /gpfslocalsup/prod/g16/rev-C01/g16/l1.exe "/gpfsssd/jobscratch/uzg38mn_1841822/Gau-1795186.inp" -scrdir="/gpfsssd/jobscratch/uzg38mn_1841822/"
 Entering Link 1 = /gpfslocalsup/prod/g16/rev-C01/g16/l1.exe PID=   1795187.
  
 Copyright (c) 1988-2019, Gaussian, Inc.  All Rights Reserved.
  
 This is part of the Gaussian(R) 16 program.  It is based on
 the Gaussian(R) 09 system (copyright 2009, Gaussian, Inc.),
 the Gaussian(R) 03 system (copyright 2003, Gaussian, Inc.),
 the Gaussian(R) 98 system (copyright 1998, Gaussian, Inc.),
 the Gaussian(R) 94 system (copyright 1995, Gaussian, Inc.),
 the Gaussian 92(TM) system (copyright 1992, Gaussian, Inc.),
 the Gaussian 90(TM) system (copyright 1990, Gaussian, Inc.),
 the Gaussian 88(TM) system (copyright 1988, Gaussian, Inc.),
 the Gaussian 86(TM) system (copyright 1986, Carnegie Mellon
 University), and the Gaussian 82(TM) system (copyright 1983,
 Carnegie Mellon University). Gaussian is a federally registered
 trademark of Gaussian, Inc.
  
 This software contains proprietary and confidential information,
 including trade secrets, belonging to Gaussian, Inc.
  
 This software is provided under written license and may be
 used, copied, transmitted, or stored only in accord with that
 written license.
  
 The following legend is applicable only to US Government
 contracts under FAR:
  
                    RESTRICTED RIGHTS LEGEND
  
 Use, reproduction and disclosure by the US Government is
 subject to restrictions as set forth in subparagraphs (a)
 and (c) of the Commercial Computer Software - Restricted
 Rights clause in FAR 52.227-19.
  
 Gaussian, Inc.
 340 Quinnipiac St., Bldg. 40, Wallingford CT 06492
  
  
 ---------------------------------------------------------------
 Warning -- This program may not be used in any manner that
 competes with the business of Gaussian, Inc. or will provide
 assistance to any competitor of Gaussian, Inc.  The licensee
 of this program is prohibited from giving any competitor of
 Gaussian, Inc. access to this program.  By using this program,
 the user acknowledges that Gaussian, Inc. is engaged in the
 business of creating and licensing software in the field of
 computational chemistry and represents and warrants to the
 licensee that it is not a competitor of Gaussian, Inc. and that
 it will not use this program in any manner prohibited above.
 ---------------------------------------------------------------
  

 Cite this work as:
 Gaussian 16, Revision C.01,
 M. J. Frisch, G. W. Trucks, H. B. Schlegel, G. E. Scuseria, 
 M. A. Robb, J. R. Cheeseman, G. Scalmani, V. Barone, 
 G. A. Petersson, H. Nakatsuji, X. Li, M. Caricato, A. V. Marenich, 
 J. Bloino, B. G. Janesko, R. Gomperts, B. Mennucci, H. P. Hratchian, 
 J. V. Ortiz, A. F. Izmaylov, J. L. Sonnenberg, D. Williams-Young, 
 F. Ding, F. Lipparini, F. Egidi, J. Goings, B. Peng, A. Petrone, 
 T. Henderson, D. Ranasinghe, V. G. Zakrzewski, J. Gao, N. Rega, 
 G. Zheng, W. Liang, M. Hada, M. Ehara, K. Toyota, R. Fukuda, 
 J. Hasegawa, M. Ishida, T. Nakajima, Y. Honda, O. Kitao, H. Nakai, 
 T. Vreven, K. Throssell, J. A. Montgomery, Jr., J. E. Peralta, 
 F. Ogliaro, M. J. Bearpark, J. J. Heyd, E. N. Brothers, K. N. Kudin, 
 V. N. Staroverov, T. A. Keith, R. Kobayashi, J. Normand, 
 K. Raghavachari, A. P. Rendell, J. C. Burant, S. S. Iyengar, 
 J. Tomasi, M. Cossi, J. M. Millam, M. Klene, C. Adamo, R. Cammi, 
 J. W. Ochterski, R. L. Martin, K. Morokuma, O. Farkas, 
 J. B. Foresman, and D. J. Fox, Gaussian, Inc., Wallingford CT, 2019.
 
 ******************************************
 Gaussian 16:  ES64L-G16RevC.01  3-Jul-2019
                11-Sep-2023 
 ******************************************
 %mem=96000MB
 %nprocshared=24
 Will use up to   24 processors via shared memory.
 -----------------------------------
 # um062x Def2TZVP stable=opt NoSymm
 -----------------------------------
 1/38=1,172=1/1;
 2/12=2,15=1,17=6,18=5,40=1/2;
 3/5=44,7=101,11=2,25=1,30=1,74=-55,116=2/1,2,3;
 4//1;
 5/5=2,38=5/2;
 6/7=2,8=2,9=2,10=2,28=1/1;
 8/6=1,10=90,11=11/1;
 9/8=-3,42=1,46=1/14;
 5/5=2,8=3,17=40,38=5/8(-2);
 6/7=2,8=2,9=2,10=2,28=1/1;
 99/5=1,9=1/99;
 -----------------
 r1_C4H7N2O_sp_g16
 -----------------
 Symbolic Z-matrix:
 Charge =  0 Multiplicity = 2
 C                    -1.40109  -1.65844  -0.05369 
 C                    -0.92014  -0.30745   0.34142 
 C                    -0.94937   0.75144  -0.74487 
 N                     0.05907   1.52367  -0.72887 
 O                     0.91237   1.13983   0.27956 
 C                     0.56599  -0.1919    0.72772 
 N                     1.37001  -1.20522   0.13104 
 H                    -0.73738  -2.51849   0.01047 
 H                    -2.44326  -1.79685  -0.34041 
 H                    -1.53586   0.08801   1.17427 
 H                    -1.74595   0.90655  -1.47363 
 H                     0.72875  -0.19089   1.81245 
 H                     2.35215  -1.05063   0.3465 
 H                     1.26857  -1.19777  -0.88376 
 
                          Input orientation:                          
 ---------------------------------------------------------------------
 Center     Atomic      Atomic             Coordinates (Angstroms)
 Number     Number       Type             X           Y           Z
 ---------------------------------------------------------------------
      1          6           0       -1.401089   -1.658442   -0.053687
      2          6           0       -0.920137   -0.307451    0.341422
      3          6           0       -0.949371    0.751441   -0.744870
      4          7           0        0.059067    1.523667   -0.728875
      5          8           0        0.912369    1.139831    0.279556
      6          6           0        0.565991   -0.191896    0.727721
      7          7           0        1.370006   -1.205218    0.131041
      8          1           0       -0.737381   -2.518491    0.010472
      9          1           0       -2.443262   -1.796851   -0.340410
     10          1           0       -1.535858    0.088011    1.174266
     11          1           0       -1.745953    0.906550   -1.473635
     12          1           0        0.728749   -0.190889    1.812450
     13          1           0        2.352146   -1.050632    0.346501
     14          1           0        1.268567   -1.197767   -0.883756
 ---------------------------------------------------------------------
                    Distance matrix (angstroms):
                    1          2          3          4          5
     1  C    0.000000
     2  C    1.487482   0.000000
     3  C    2.547414   1.517280   0.000000
     4  N    3.565635   2.336101   1.270250   0.000000
     5  O    3.646021   2.335922   2.160179   1.375641   0.000000
     6  C    2.575026   1.539856   2.314029   2.306903   1.447179
     7  N    2.813984   2.468806   3.158361   3.147194   2.393897
     8  H    1.088260   2.243129   3.362728   4.185690   4.022114
     9  H    1.089721   2.236765   2.981458   4.175930   4.502079
    10  H    2.139189   1.108662   2.113573   2.868247   2.810809
    11  H    2.952011   2.334567   1.090734   2.047828   3.192926
    12  H    3.189418   2.212766   3.200618   3.137915   2.038209
    13  H    3.823134   3.355619   3.916449   3.611324   2.622130
    14  H    2.833425   2.661606   2.956002   2.982127   2.635249
                    6          7          8          9         10
     6  C    0.000000
     7  N    1.424531   0.000000
     8  H    2.761570   2.486021   0.000000
     9  H    3.573848   3.887584   1.885182   0.000000
    10  H    2.166915   3.347358   2.964091   2.582698   0.000000
    11  H    3.376039   4.091913   3.866613   3.013107   2.779483
    12  H    1.096872   2.065723   3.288524   4.156390   2.369284
    13  H    2.018194   1.017310   3.436961   4.901492   4.135006
    14  H    2.025401   1.019882   2.562769   3.798921   3.708568
                   11         12         13         14
    11  H    0.000000
    12  H    4.257567   0.000000
    13  H    4.892634   2.350230   0.000000
    14  H    3.723364   2.928265   1.646003   0.000000
 Symmetry turned off by external request.
 Stoichiometry    C4H7N2O(2)
 Framework group  C1[X(C4H7N2O)]
 Deg. of freedom    36
 Full point group                 C1      NOp   1
 Rotational constants (GHZ):           3.9250850           3.1724055           2.0528291
 Standard basis: def2TZVP (5D, 7F)
   259 basis functions,   413 primitive gaussians,   294 cartesian basis functions
    27 alpha electrons       26 beta electrons
       nuclear repulsion energy       309.9444240799 Hartrees.
 NAtoms=   14 NActive=   14 NUniq=   14 SFac= 1.00D+00 NAtFMM=   60 NAOKFM=F Big=F
 Integral buffers will be    131072 words long.
 Raffenetti 2 integral format.
 Two-electron integral symmetry is turned off.
 One-electron integrals computed using PRISM.
   1 Symmetry operations used in ECPInt.
 ECPInt:  NShTT=    5565 NPrTT=   16828 LenC2=    5516 LenP2D=   13780.
 LDataN:  DoStor=T MaxTD1= 6 Len=  172
 NBasis=   259 RedAO= T EigKep=  1.44D-04  NBF=   259
 NBsUse=   259 1.00D-06 EigRej= -1.00D+00 NBFU=   259
 ExpMin= 9.52D-02 ExpMax= 2.70D+04 ExpMxC= 9.22D+02 IAcc=3 IRadAn=         5 AccDes= 0.00D+00
 Harris functional with IExCor= 1009 and IRadAn=       5 diagonalized for initial guess.
 HarFok:  IExCor= 1009 AccDes= 0.00D+00 IRadAn=         5 IDoV= 1 UseB2=F ITyADJ=14
 ICtDFT=  3500011 ScaDFX=  1.000000  1.000000  1.000000  1.000000
 FoFCou: FMM=F IPFlag=           0 FMFlag=      100000 FMFlg1=           0
         NFxFlg=           0 DoJE=T BraDBF=F KetDBF=T FulRan=T
         wScrn=  0.000000 ICntrl=       500 IOpCl=  0 I1Cent=   200000004 NGrid=           0
         NMat0=    1 NMatS0=      1 NMatT0=    0 NMatD0=    1 NMtDS0=    0 NMtDT0=    0
 Symmetry not used in FoFCou.
 Initial guess <Sx>= 0.0000 <Sy>= 0.0000 <Sz>= 0.5000 <S**2>= 0.7500 S= 0.5000
 Requested convergence on RMS density matrix=1.00D-08 within 128 cycles.
 Requested convergence on MAX density matrix=1.00D-06.
 Requested convergence on             energy=1.00D-06.
 No special actions if energy rises.
 Integral accuracy reduced to 1.0D-05 until final iterations.
 Initial convergence to 1.0D-05 achieved.  Increase integral accuracy.
 SCF Done:  E(UM062X) =  -341.221989820     A.U. after   17 cycles
            NFock= 17  Conv=0.85D-08     -V/T= 2.0048
 <Sx>= 0.0000 <Sy>= 0.0000 <Sz>= 0.5000 <S**2>= 0.7554 S= 0.5027
 <L.S>=  0.00000000000    
 Annihilation of the first spin contaminant:
 S**2 before annihilation     0.7554,   after     0.7500

 **********************************************************************

            Population analysis using the SCF Density.

 **********************************************************************

 Alpha  occ. eigenvalues --  -19.66474 -14.80676 -14.74536 -10.62925 -10.58133
 Alpha  occ. eigenvalues --  -10.57294 -10.56008  -1.23491  -1.01972  -0.96599
 Alpha  occ. eigenvalues --   -0.89257  -0.77967  -0.68722  -0.67712  -0.61847
 Alpha  occ. eigenvalues --   -0.58685  -0.55283  -0.52885  -0.51135  -0.47565
 Alpha  occ. eigenvalues --   -0.47539  -0.44228  -0.41666  -0.38973  -0.34058
 Alpha  occ. eigenvalues --   -0.31750  -0.27555
 Alpha virt. eigenvalues --    0.02993   0.06640   0.08480   0.09735   0.11564
 Alpha virt. eigenvalues --    0.11628   0.13909   0.14696   0.16499   0.17065
 Alpha virt. eigenvalues --    0.20141   0.20836   0.23202   0.24045   0.25434
 Alpha virt. eigenvalues --    0.28007   0.28594   0.29918   0.31034   0.33010
 Alpha virt. eigenvalues --    0.34310   0.34883   0.37723   0.39345   0.39651
 Alpha virt. eigenvalues --    0.41903   0.42754   0.43257   0.43558   0.45073
 Alpha virt. eigenvalues --    0.45867   0.47322   0.48659   0.49366   0.51293
 Alpha virt. eigenvalues --    0.51921   0.53359   0.54686   0.55041   0.57421
 Alpha virt. eigenvalues --    0.59596   0.60655   0.62231   0.63331   0.65011
 Alpha virt. eigenvalues --    0.68084   0.72129   0.72769   0.76560   0.80560
 Alpha virt. eigenvalues --    0.82245   0.84218   0.84943   0.95136   0.96018
 Alpha virt. eigenvalues --    0.97716   0.97832   1.01000   1.03625   1.03745
 Alpha virt. eigenvalues --    1.05953   1.07704   1.08711   1.11850   1.14133
 Alpha virt. eigenvalues --    1.18207   1.21370   1.23221   1.25177   1.27942
 Alpha virt. eigenvalues --    1.33001   1.34103   1.39674   1.41260   1.44119
 Alpha virt. eigenvalues --    1.44651   1.47371   1.50255   1.51576   1.52841
 Alpha virt. eigenvalues --    1.55202   1.57213   1.58392   1.61055   1.65718
 Alpha virt. eigenvalues --    1.66911   1.73004   1.74537   1.76666   1.79639
 Alpha virt. eigenvalues --    1.82424   1.84020   1.85888   1.87206   1.89699
 Alpha virt. eigenvalues --    1.92651   1.93979   1.96589   2.00707   2.01596
 Alpha virt. eigenvalues --    2.02457   2.05957   2.07266   2.09285   2.10348
 Alpha virt. eigenvalues --    2.12423   2.16178   2.17128   2.22021   2.24724
 Alpha virt. eigenvalues --    2.27676   2.29234   2.33828   2.36000   2.36580
 Alpha virt. eigenvalues --    2.38777   2.40552   2.42452   2.48424   2.49249
 Alpha virt. eigenvalues --    2.52972   2.55750   2.58901   2.60450   2.64560
 Alpha virt. eigenvalues --    2.65740   2.67480   2.70286   2.73667   2.77356
 Alpha virt. eigenvalues --    2.78898   2.79841   2.82464   2.87943   2.89732
 Alpha virt. eigenvalues --    2.92008   2.93212   2.94500   2.97185   2.97877
 Alpha virt. eigenvalues --    2.98953   3.01805   3.03739   3.08886   3.09368
 Alpha virt. eigenvalues --    3.12235   3.15644   3.16939   3.18469   3.20035
 Alpha virt. eigenvalues --    3.23110   3.25173   3.26607   3.28911   3.30588
 Alpha virt. eigenvalues --    3.33720   3.34976   3.38866   3.40828   3.43315
 Alpha virt. eigenvalues --    3.48494   3.49558   3.51295   3.54563   3.57182
 Alpha virt. eigenvalues --    3.57569   3.62869   3.65522   3.72851   3.74355
 Alpha virt. eigenvalues --    3.78821   3.85857   3.90981   3.92683   3.95845
 Alpha virt. eigenvalues --    3.98103   4.04487   4.07168   4.08228   4.13590
 Alpha virt. eigenvalues --    4.14886   4.24051   4.26449   4.31069   4.34992
 Alpha virt. eigenvalues --    4.40310   4.42226   4.47602   4.55501   4.59040
 Alpha virt. eigenvalues --    4.63501   4.65551   4.69841   4.73398   4.75368
 Alpha virt. eigenvalues --    4.80132   4.80910   4.85759   4.88929   4.90807
 Alpha virt. eigenvalues --    4.95018   5.01851   5.08311   5.09471   5.19344
 Alpha virt. eigenvalues --    5.21955   5.24788   5.26262   5.30145   5.41437
 Alpha virt. eigenvalues --    5.42369   5.47598   5.50573   5.60026   5.75182
 Alpha virt. eigenvalues --    5.81402   5.96234   6.00470   6.33617   6.68269
 Alpha virt. eigenvalues --    6.72203   6.89412   6.90646   7.21714   7.61971
 Alpha virt. eigenvalues --   22.23956  22.64658  22.68842  22.79669  32.10167
 Alpha virt. eigenvalues --   32.15830  44.31586
  Beta  occ. eigenvalues --  -19.66467 -14.80669 -14.74537 -10.62923 -10.58052
  Beta  occ. eigenvalues --  -10.57362 -10.55324  -1.23454  -1.01945  -0.96372
  Beta  occ. eigenvalues --   -0.88303  -0.75774  -0.67814  -0.67046  -0.61540
  Beta  occ. eigenvalues --   -0.58434  -0.55039  -0.52236  -0.50255  -0.47463
  Beta  occ. eigenvalues --   -0.46481  -0.43852  -0.41479  -0.38531  -0.33806
  Beta  occ. eigenvalues --   -0.31608
  Beta virt. eigenvalues --   -0.03735   0.03035   0.06422   0.07961   0.09540
  Beta virt. eigenvalues --    0.11072   0.11840   0.13530   0.14431   0.16033
  Beta virt. eigenvalues --    0.16595   0.19505   0.20541   0.22506   0.23427
  Beta virt. eigenvalues --    0.23650   0.26792   0.28325   0.29600   0.30224
  Beta virt. eigenvalues --    0.32380   0.34630   0.34855   0.36550   0.39267
  Beta virt. eigenvalues --    0.39706   0.41033   0.42681   0.43057   0.43587
  Beta virt. eigenvalues --    0.45142   0.45946   0.46909   0.48476   0.49870
  Beta virt. eigenvalues --    0.51704   0.52109   0.53561   0.54558   0.55352
  Beta virt. eigenvalues --    0.57911   0.59614   0.60507   0.61991   0.63221
  Beta virt. eigenvalues --    0.64273   0.68472   0.72178   0.72621   0.76776
  Beta virt. eigenvalues --    0.80841   0.82232   0.84299   0.85178   0.95257
  Beta virt. eigenvalues --    0.95904   0.97578   0.97955   1.01154   1.03609
  Beta virt. eigenvalues --    1.04039   1.06139   1.07989   1.08879   1.12145
  Beta virt. eigenvalues --    1.14313   1.18094   1.21550   1.23278   1.25295
  Beta virt. eigenvalues --    1.28150   1.33336   1.34346   1.39681   1.41406
  Beta virt. eigenvalues --    1.44247   1.44894   1.49120   1.50298   1.53102
  Beta virt. eigenvalues --    1.53508   1.56504   1.57955   1.59152   1.61609
  Beta virt. eigenvalues --    1.67009   1.67158   1.73315   1.74761   1.76886
  Beta virt. eigenvalues --    1.80113   1.82508   1.84716   1.86819   1.87849
  Beta virt. eigenvalues --    1.90243   1.93058   1.94477   1.97180   2.00789
  Beta virt. eigenvalues --    2.01756   2.03058   2.06308   2.07443   2.09492
  Beta virt. eigenvalues --    2.10644   2.12514   2.16182   2.17245   2.22164
  Beta virt. eigenvalues --    2.24883   2.27984   2.30204   2.34243   2.36463
  Beta virt. eigenvalues --    2.36944   2.39702   2.40992   2.43215   2.48802
  Beta virt. eigenvalues --    2.49705   2.53242   2.56731   2.59658   2.61141
  Beta virt. eigenvalues --    2.65030   2.67100   2.67977   2.70733   2.75432
  Beta virt. eigenvalues --    2.77931   2.79298   2.80043   2.83639   2.88490
  Beta virt. eigenvalues --    2.90390   2.92580   2.94579   2.95449   2.98213
  Beta virt. eigenvalues --    2.98970   3.00538   3.02752   3.07131   3.10448
  Beta virt. eigenvalues --    3.12404   3.15253   3.16866   3.18281   3.20569
  Beta virt. eigenvalues --    3.21720   3.25483   3.26317   3.27938   3.30732
  Beta virt. eigenvalues --    3.31041   3.34775   3.36353   3.40626   3.42524
  Beta virt. eigenvalues --    3.44285   3.48811   3.50673   3.52139   3.56481
  Beta virt. eigenvalues --    3.58089   3.59145   3.64264   3.66557   3.73652
  Beta virt. eigenvalues --    3.75079   3.79400   3.86516   3.91315   3.94407
  Beta virt. eigenvalues --    3.97018   3.99428   4.05333   4.07698   4.10283
  Beta virt. eigenvalues --    4.14685   4.17206   4.24308   4.27557   4.31605
  Beta virt. eigenvalues --    4.35079   4.41157   4.44251   4.48126   4.56537
  Beta virt. eigenvalues --    4.61307   4.64596   4.67754   4.71367   4.74093
  Beta virt. eigenvalues --    4.76140   4.80157   4.81055   4.86881   4.89067
  Beta virt. eigenvalues --    4.90906   4.95421   5.01811   5.08314   5.09498
  Beta virt. eigenvalues --    5.19520   5.22060   5.24818   5.26313   5.30200
  Beta virt. eigenvalues --    5.41447   5.42436   5.47628   5.50606   5.60047
  Beta virt. eigenvalues --    5.75221   5.81427   5.96249   6.00469   6.33625
  Beta virt. eigenvalues --    6.68278   6.72230   6.89428   6.90645   7.21722
  Beta virt. eigenvalues --    7.61955  22.25164  22.64667  22.68861  22.79715
  Beta virt. eigenvalues --   32.10163  32.15825  44.31585
          Condensed to atoms (all electrons):
               1          2          3          4          5          6
     1  C    5.432019   0.303635  -0.060435   0.005132   0.007498  -0.062211
     2  C    0.303635   5.123789   0.263381  -0.052968  -0.027006   0.284894
     3  C   -0.060435   0.263381   5.123679   0.548241  -0.131389   0.029070
     4  N    0.005132  -0.052968   0.548241   6.465202   0.126937  -0.046346
     5  O    0.007498  -0.027006  -0.131389   0.126937   8.119236   0.212311
     6  C   -0.062211   0.284894   0.029070  -0.046346   0.212311   4.901651
     7  N   -0.006196  -0.038590   0.004409  -0.004675  -0.078560   0.261135
     8  H    0.416636  -0.040604   0.000835  -0.000146   0.000628  -0.007649
     9  H    0.422483  -0.057378  -0.002258  -0.000108  -0.000124   0.006437
    10  H   -0.054424   0.428640  -0.062793  -0.001897   0.009414  -0.050355
    11  H    0.003916  -0.043011   0.406774  -0.024639   0.006126   0.001769
    12  H   -0.000781  -0.033957   0.003316   0.006802  -0.041008   0.438817
    13  H    0.000468   0.007545  -0.000754  -0.000785   0.000936  -0.034585
    14  H   -0.002770  -0.001781   0.000237   0.002506  -0.002001  -0.029854
               7          8          9         10         11         12
     1  C   -0.006196   0.416636   0.422483  -0.054424   0.003916  -0.000781
     2  C   -0.038590  -0.040604  -0.057378   0.428640  -0.043011  -0.033957
     3  C    0.004409   0.000835  -0.002258  -0.062793   0.406774   0.003316
     4  N   -0.004675  -0.000146  -0.000108  -0.001897  -0.024639   0.006802
     5  O   -0.078560   0.000628  -0.000124   0.009414   0.006126  -0.041008
     6  C    0.261135  -0.007649   0.006437  -0.050355   0.001769   0.438817
     7  N    6.706705   0.007421   0.000663   0.007467   0.000469  -0.051678
     8  H    0.007421   0.435853  -0.016107   0.001760  -0.000134   0.000269
     9  H    0.000663  -0.016107   0.478403  -0.003457  -0.000446  -0.000316
    10  H    0.007467   0.001760  -0.003457   0.573042   0.002901  -0.006302
    11  H    0.000469  -0.000134  -0.000446   0.002901   0.487506  -0.000217
    12  H   -0.051678   0.000269  -0.000316  -0.006302  -0.000217   0.549911
    13  H    0.370919  -0.000389   0.000020  -0.000444   0.000019  -0.008428
    14  H    0.359307  -0.001162  -0.000404   0.000337  -0.000040   0.007991
              13         14
     1  C    0.000468  -0.002770
     2  C    0.007545  -0.001781
     3  C   -0.000754   0.000237
     4  N   -0.000785   0.002506
     5  O    0.000936  -0.002001
     6  C   -0.034585  -0.029854
     7  N    0.370919   0.359307
     8  H   -0.000389  -0.001162
     9  H    0.000020  -0.000404
    10  H   -0.000444   0.000337
    11  H    0.000019  -0.000040
    12  H   -0.008428   0.007991
    13  H    0.456316  -0.030769
    14  H   -0.030769   0.450408
          Atomic-Atomic Spin Densities.
               1          2          3          4          5          6
     1  C    1.136299   0.021844  -0.048410   0.003418   0.001949  -0.021099
     2  C    0.021844  -0.122052   0.006894   0.004943   0.002866  -0.013536
     3  C   -0.048410   0.006894   0.096914  -0.014681  -0.004000   0.024631
     4  N    0.003418   0.004943  -0.014681   0.011782  -0.001356  -0.004509
     5  O    0.001949   0.002866  -0.004000  -0.001356   0.006006  -0.005544
     6  C   -0.021099  -0.013536   0.024631  -0.004509  -0.005544   0.044520
     7  N    0.001176   0.010017  -0.003897   0.000598   0.001430  -0.014543
     8  H   -0.013481   0.005929   0.000329  -0.000005  -0.000061  -0.000785
     9  H   -0.009720   0.004073   0.001507  -0.000055   0.000003   0.000015
    10  H   -0.032202   0.037091  -0.030931   0.003858   0.000202  -0.014222
    11  H    0.002459   0.005829  -0.007863  -0.000157   0.000095  -0.001121
    12  H    0.000273   0.000015   0.000624  -0.000132  -0.000207  -0.000227
    13  H    0.000686  -0.000434   0.000000  -0.000022   0.000232  -0.001338
    14  H   -0.001477   0.003709  -0.001083  -0.000040   0.000110  -0.000433
               7          8          9         10         11         12
     1  C    0.001176  -0.013481  -0.009720  -0.032202   0.002459   0.000273
     2  C    0.010017   0.005929   0.004073   0.037091   0.005829   0.000015
     3  C   -0.003897   0.000329   0.001507  -0.030931  -0.007863   0.000624
     4  N    0.000598  -0.000005  -0.000055   0.003858  -0.000157  -0.000132
     5  O    0.001430  -0.000061   0.000003   0.000202   0.000095  -0.000207
     6  C   -0.014543  -0.000785   0.000015  -0.014222  -0.001121  -0.000227
     7  N    0.006970   0.001906  -0.000007   0.001512   0.000096   0.000097
     8  H    0.001906  -0.032789   0.001408  -0.000194  -0.000008   0.000014
     9  H   -0.000007   0.001408  -0.035050  -0.000241  -0.000059  -0.000012
    10  H    0.001512  -0.000194  -0.000241   0.078537   0.001094  -0.001257
    11  H    0.000096  -0.000008  -0.000059   0.001094   0.000670  -0.000019
    12  H    0.000097   0.000014  -0.000012  -0.001257  -0.000019   0.001919
    13  H    0.000359  -0.000057  -0.000005   0.000113   0.000008  -0.000110
    14  H   -0.000052   0.000164  -0.000005   0.000132   0.000056  -0.000111
              13         14
     1  C    0.000686  -0.001477
     2  C   -0.000434   0.003709
     3  C    0.000000  -0.001083
     4  N   -0.000022  -0.000040
     5  O    0.000232   0.000110
     6  C   -0.001338  -0.000433
     7  N    0.000359  -0.000052
     8  H   -0.000057   0.000164
     9  H   -0.000005  -0.000005
    10  H    0.000113   0.000132
    11  H    0.000008   0.000056
    12  H   -0.000110  -0.000111
    13  H    0.000210   0.000605
    14  H    0.000605  -0.003261
 Mulliken charges and spin densities:
               1          2
     1  C   -0.404970   1.041716
     2  C   -0.116590  -0.032811
     3  C   -0.122312   0.020035
     4  N   -0.023256   0.003643
     5  O   -0.202998   0.001726
     6  C    0.094917  -0.008190
     7  N   -0.538796   0.005662
     8  H    0.202786  -0.037629
     9  H    0.172591  -0.038148
    10  H    0.156112   0.043491
    11  H    0.159007   0.001080
    12  H    0.135580   0.000867
    13  H    0.239931   0.000245
    14  H    0.247997  -0.001686
 Sum of Mulliken charges =  -0.00000   1.00000
 Mulliken charges and spin densities with hydrogens summed into heavy atoms:
               1          2
     1  C   -0.029593   0.965939
     2  C    0.039522   0.010680
     3  C    0.036695   0.021115
     4  N   -0.023256   0.003643
     5  O   -0.202998   0.001726
     6  C    0.230498  -0.007323
     7  N   -0.050868   0.004220
 Electronic spatial extent (au):  <R**2>=            643.0386
 Charge=             -0.0000 electrons
 Dipole moment (field-independent basis, Debye):
    X=             -1.2381    Y=             -1.9462    Z=              0.3640  Tot=              2.3352
 Quadrupole moment (field-independent basis, Debye-Ang):
   XX=            -36.6895   YY=            -49.6832   ZZ=            -40.7124
   XY=             -2.8097   XZ=              1.1787   YZ=              2.2058
 Traceless Quadrupole moment (field-independent basis, Debye-Ang):
   XX=              5.6722   YY=             -7.3215   ZZ=              1.6493
   XY=             -2.8097   XZ=              1.1787   YZ=              2.2058
 Octapole moment (field-independent basis, Debye-Ang**2):
  XXX=             13.3138  YYY=              6.1793  ZZZ=              3.4573  XYY=             -2.1502
  XXY=             -0.2356  XXZ=             -2.3948  XZZ=              3.6963  YZZ=              3.1213
  YYZ=             -0.3761  XYZ=              1.7943
 Hexadecapole moment (field-independent basis, Debye-Ang**3):
 XXXX=           -292.4509 YYYY=           -410.9942 ZZZZ=           -129.4090 XXXY=            -33.9455
 XXXZ=            -14.0215 YYYX=            -18.7447 YYYZ=             41.4605 ZZZX=            -21.5246
 ZZZY=             30.0456 XXYY=           -122.6811 XXZZ=            -71.8343 YYZZ=            -94.2616
 XXYZ=              9.7111 YYXZ=             -8.7807 ZZXY=            -15.7425
 N-N= 3.099444240799D+02 E-N=-1.416259517720D+03  KE= 3.395929685842D+02
                          Isotropic Fermi Contact Couplings
        Atom                 a.u.       MegaHertz       Gauss      10(-4) cm-1
     1  C(13)              0.16173     181.81153      64.87488      60.64580
     2  C(13)             -0.03597     -40.43657     -14.42877     -13.48819
     3  C(13)              0.05605      63.00767      22.48270      21.01710
     4  N(14)              0.00037       0.11794       0.04208       0.03934
     5  O(17)              0.00317      -1.92130      -0.68557      -0.64088
     6  C(13)              0.00081       0.91162       0.32529       0.30408
     7  N(14)             -0.00081      -0.26226      -0.09358      -0.08748
     8  H(1)              -0.01698     -75.88282     -27.07688     -25.31178
     9  H(1)              -0.01642     -73.40818     -26.19386     -24.48633
    10  H(1)               0.02154      96.27208      34.35227      32.11291
    11  H(1)              -0.00051      -2.27515      -0.81183      -0.75891
    12  H(1)              -0.00015      -0.67885      -0.24223      -0.22644
    13  H(1)               0.00020       0.90447       0.32274       0.30170
    14  H(1)               0.00022       0.98779       0.35247       0.32949
 --------------------------------------------------------
       Center         ----  Spin Dipole Couplings  ----
                      3XX-RR        3YY-RR        3ZZ-RR
 --------------------------------------------------------
     1   Atom       -0.424518     -0.509493      0.934011
     2   Atom       -0.010399      0.001901      0.008498
     3   Atom       -0.031921      0.036501     -0.004579
     4   Atom        0.016154     -0.008852     -0.007301
     5   Atom       -0.008811     -0.008923      0.017734
     6   Atom        0.004859     -0.000981     -0.003878
     7   Atom        0.008511     -0.008815      0.000303
     8   Atom       -0.011129      0.020946     -0.009817
     9   Atom        0.067479     -0.067337     -0.000142
    10   Atom       -0.008206      0.010785     -0.002580
    11   Atom       -0.004680      0.005629     -0.000949
    12   Atom        0.002079     -0.001718     -0.000361
    13   Atom        0.004397     -0.002313     -0.002084
    14   Atom        0.011242     -0.006110     -0.005132
 --------------------------------------------------------
                        XY            XZ            YZ
 --------------------------------------------------------
     1   Atom        0.066876     -0.416168     -0.246068
     2   Atom        0.006626     -0.004035      0.002639
     3   Atom        0.012535     -0.011401     -0.040032
     4   Atom        0.025407     -0.012791     -0.015919
     5   Atom        0.002784      0.001919      0.002980
     6   Atom        0.008393      0.004032      0.002955
     7   Atom        0.002319      0.004036      0.004609
     8   Atom       -0.067809     -0.011682     -0.017232
     9   Atom        0.019253      0.021610     -0.005540
    10   Atom       -0.000301     -0.001587      0.012517
    11   Atom       -0.003282      0.004013     -0.007291
    12   Atom        0.003425      0.004536      0.002676
    13   Atom        0.000882      0.000815      0.000171
    14   Atom        0.002550     -0.002744     -0.000621
 --------------------------------------------------------


 ---------------------------------------------------------------------------------
              Anisotropic Spin Dipole Couplings in Principal Axis System
 ---------------------------------------------------------------------------------

       Atom             a.u.   MegaHertz   Gauss  10(-4) cm-1        Axes

              Baa    -0.5507   -73.903   -26.370   -24.651  0.2090  0.9536  0.2166
     1 C(13)  Bbb    -0.5412   -72.627   -25.915   -24.226  0.9405 -0.2566  0.2225
              Bcc     1.0920   146.531    52.286    48.877 -0.2678 -0.1572  0.9506
 
              Baa    -0.0143    -1.917    -0.684    -0.639  0.8937 -0.3993  0.2045
     2 C(13)  Bbb     0.0047     0.626     0.223     0.209  0.4325  0.8880 -0.1561
              Bcc     0.0096     1.291     0.461     0.431 -0.1193  0.2280  0.9663
 
              Baa    -0.0362    -4.857    -1.733    -1.620  0.9023  0.0779  0.4240
     3 C(13)  Bbb    -0.0277    -3.711    -1.324    -1.238 -0.3956  0.5406  0.7425
              Bcc     0.0638     8.568     3.057     2.858  0.1714  0.8377 -0.5186
 
              Baa    -0.0278    -1.074    -0.383    -0.358 -0.3581  0.8328  0.4222
     4 N(14)  Bbb    -0.0121    -0.467    -0.166    -0.156  0.5386 -0.1851  0.8219
              Bcc     0.0399     1.541     0.550     0.514  0.7627  0.5218 -0.3823
 
              Baa    -0.0117     0.845     0.301     0.282 -0.6869  0.7262 -0.0288
     5 O(17)  Bbb    -0.0066     0.475     0.170     0.159  0.7221  0.6775 -0.1401
              Bcc     0.0182    -1.320    -0.471    -0.440  0.0822  0.1170  0.9897
 
              Baa    -0.0070    -0.933    -0.333    -0.311 -0.5690  0.8212 -0.0431
     6 C(13)  Bbb    -0.0054    -0.726    -0.259    -0.242 -0.2654 -0.1338  0.9548
              Bcc     0.0124     1.659     0.592     0.553  0.7783  0.5547  0.2941
 
              Baa    -0.0108    -0.415    -0.148    -0.138 -0.0332  0.9268 -0.3741
     7 N(14)  Bbb    -0.0002    -0.008    -0.003    -0.003 -0.4664  0.3167  0.8259
              Bcc     0.0110     0.423     0.151     0.141  0.8839  0.2019  0.4218
 
              Baa    -0.0712   -37.999   -13.559   -12.675  0.7376  0.6004  0.3088
     8 H(1)   Bbb    -0.0038    -2.053    -0.733    -0.685 -0.2893 -0.1323  0.9481
              Bcc     0.0751    40.052    14.292    13.360 -0.6101  0.7887 -0.0761
 
              Baa    -0.0711   -37.931   -13.535   -12.653 -0.1555  0.9800  0.1239
     9 H(1)   Bbb    -0.0047    -2.521    -0.899    -0.841 -0.2438 -0.1596  0.9566
              Bcc     0.0758    40.452    14.434    13.493  0.9573  0.1185  0.2637
 
              Baa    -0.0107    -5.700    -2.034    -1.901  0.4435 -0.4468  0.7770
    10 H(1)   Bbb    -0.0077    -4.083    -1.457    -1.362  0.8954  0.2601 -0.3615
              Bcc     0.0183     9.783     3.491     3.263 -0.0405  0.8560  0.5154
 
              Baa    -0.0075    -3.978    -1.419    -1.327  0.7332 -0.1813 -0.6554
    11 H(1)   Bbb    -0.0044    -2.332    -0.832    -0.778  0.6157  0.5861  0.5267
              Bcc     0.0118     6.310     2.252     2.105 -0.2886  0.7897 -0.5413
 
              Baa    -0.0039    -2.055    -0.733    -0.685 -0.4640 -0.3004  0.8334
    12 H(1)   Bbb    -0.0037    -1.993    -0.711    -0.665 -0.5186  0.8548  0.0193
              Bcc     0.0076     4.048     1.444     1.350  0.7182  0.4232  0.5524
 
              Baa    -0.0024    -1.304    -0.465    -0.435 -0.0954  0.9653 -0.2431
    13 H(1)   Bbb    -0.0022    -1.158    -0.413    -0.386 -0.1499  0.2275  0.9622
              Bcc     0.0046     2.462     0.878     0.821  0.9841  0.1283  0.1230
 
              Baa    -0.0065    -3.484    -1.243    -1.162 -0.1041  0.9685  0.2260
    14 H(1)   Bbb    -0.0055    -2.955    -1.054    -0.986  0.1881 -0.2040  0.9607
              Bcc     0.0121     6.438     2.297     2.148  0.9766  0.1425 -0.1609
 

 ---------------------------------------------------------------------------------

 DoSCS=F DFT=T ScalE2(SS,OS)=  1.000000  1.000000
 Range of M.O.s used for correlation:     1   259
 NBasis=   259 NAE=    27 NBE=    26 NFC=     0 NFV=     0
 NROrb=    259 NOA=    27 NOB=    26 NVA=   232 NVB=   233

 **** Warning!!: The largest alpha MO coefficient is  0.15842254D+02


 **** Warning!!: The largest beta MO coefficient is  0.17397329D+02

 Keep R1 and R2 ints in memory in canonical form, NReq=1265158182.
    12 initial guesses have been made.
 Convergence on wavefunction:    0.001000000000000
 Iteration     1 Dimension    12 NMult     0 NNew     12
 CISAX will form    12 AO SS matrices at one time.
 New state      1 was old state      6
 Iteration     2 Dimension    24 NMult    12 NNew     12
 Iteration     3 Dimension    27 NMult    24 NNew      3
 Iteration     4 Dimension    30 NMult    27 NNew      3
 Iteration     5 Dimension    33 NMult    30 NNew      3
 Iteration     6 Dimension    36 NMult    33 NNew      3
 ***********************************************************************
 Stability analysis using <AA,BB:AA,BB> singles matrix:
 ***********************************************************************
 Ground to excited state transition densities written to RWF  633

 Eigenvectors of the stability matrix:
 
 Excited state symmetry could not be determined.
 Eigenvector   1:  3.438-?Sym  Eigenvalue= 0.1193817  <S**2>=2.704
     21A -> 28A        0.11333
     24A -> 28A       -0.13342
     25A -> 28A       -0.19141
     26A -> 28A        0.58639
     26A -> 29A       -0.14168
     20B -> 28B       -0.12312
     24B -> 28B        0.12238
     25B -> 28B        0.16891
     26B -> 27B       -0.23131
     26B -> 28B       -0.55267
     26B -> 29B        0.17891
 The wavefunction is stable under the perturbations considered.
 The wavefunction is already stable.

 **********************************************************************

            Population analysis using the SCF Density.

 **********************************************************************

 Alpha  occ. eigenvalues --  -19.66474 -14.80676 -14.74536 -10.62925 -10.58133
 Alpha  occ. eigenvalues --  -10.57294 -10.56008  -1.23491  -1.01972  -0.96599
 Alpha  occ. eigenvalues --   -0.89257  -0.77967  -0.68722  -0.67712  -0.61847
 Alpha  occ. eigenvalues --   -0.58685  -0.55283  -0.52885  -0.51135  -0.47565
 Alpha  occ. eigenvalues --   -0.47539  -0.44228  -0.41666  -0.38973  -0.34058
 Alpha  occ. eigenvalues --   -0.31750  -0.27555
 Alpha virt. eigenvalues --    0.02993   0.06640   0.08480   0.09735   0.11564
 Alpha virt. eigenvalues --    0.11628   0.13909   0.14696   0.16499   0.17065
 Alpha virt. eigenvalues --    0.20141   0.20836   0.23202   0.24045   0.25434
 Alpha virt. eigenvalues --    0.28007   0.28594   0.29918   0.31034   0.33010
 Alpha virt. eigenvalues --    0.34310   0.34883   0.37723   0.39345   0.39651
 Alpha virt. eigenvalues --    0.41903   0.42754   0.43257   0.43558   0.45073
 Alpha virt. eigenvalues --    0.45867   0.47322   0.48659   0.49366   0.51293
 Alpha virt. eigenvalues --    0.51921   0.53359   0.54686   0.55041   0.57421
 Alpha virt. eigenvalues --    0.59596   0.60655   0.62231   0.63331   0.65011
 Alpha virt. eigenvalues --    0.68084   0.72129   0.72769   0.76560   0.80560
 Alpha virt. eigenvalues --    0.82245   0.84218   0.84943   0.95136   0.96018
 Alpha virt. eigenvalues --    0.97716   0.97832   1.01000   1.03625   1.03745
 Alpha virt. eigenvalues --    1.05953   1.07704   1.08711   1.11850   1.14133
 Alpha virt. eigenvalues --    1.18207   1.21370   1.23221   1.25177   1.27942
 Alpha virt. eigenvalues --    1.33001   1.34103   1.39674   1.41260   1.44119
 Alpha virt. eigenvalues --    1.44651   1.47371   1.50255   1.51576   1.52841
 Alpha virt. eigenvalues --    1.55202   1.57213   1.58392   1.61055   1.65718
 Alpha virt. eigenvalues --    1.66911   1.73004   1.74537   1.76666   1.79639
 Alpha virt. eigenvalues --    1.82424   1.84020   1.85888   1.87206   1.89699
 Alpha virt. eigenvalues --    1.92651   1.93979   1.96589   2.00707   2.01596
 Alpha virt. eigenvalues --    2.02457   2.05957   2.07266   2.09285   2.10348
 Alpha virt. eigenvalues --    2.12423   2.16178   2.17128   2.22021   2.24724
 Alpha virt. eigenvalues --    2.27676   2.29234   2.33828   2.36000   2.36580
 Alpha virt. eigenvalues --    2.38777   2.40552   2.42452   2.48424   2.49249
 Alpha virt. eigenvalues --    2.52972   2.55750   2.58901   2.60450   2.64560
 Alpha virt. eigenvalues --    2.65740   2.67480   2.70286   2.73667   2.77356
 Alpha virt. eigenvalues --    2.78898   2.79841   2.82464   2.87943   2.89732
 Alpha virt. eigenvalues --    2.92008   2.93212   2.94500   2.97185   2.97877
 Alpha virt. eigenvalues --    2.98953   3.01805   3.03739   3.08886   3.09368
 Alpha virt. eigenvalues --    3.12235   3.15644   3.16939   3.18469   3.20035
 Alpha virt. eigenvalues --    3.23110   3.25173   3.26607   3.28911   3.30588
 Alpha virt. eigenvalues --    3.33720   3.34976   3.38866   3.40828   3.43315
 Alpha virt. eigenvalues --    3.48494   3.49558   3.51295   3.54563   3.57182
 Alpha virt. eigenvalues --    3.57569   3.62869   3.65522   3.72851   3.74355
 Alpha virt. eigenvalues --    3.78821   3.85857   3.90981   3.92683   3.95845
 Alpha virt. eigenvalues --    3.98103   4.04487   4.07168   4.08228   4.13590
 Alpha virt. eigenvalues --    4.14886   4.24051   4.26449   4.31069   4.34992
 Alpha virt. eigenvalues --    4.40310   4.42226   4.47602   4.55501   4.59040
 Alpha virt. eigenvalues --    4.63501   4.65551   4.69841   4.73398   4.75368
 Alpha virt. eigenvalues --    4.80132   4.80910   4.85759   4.88929   4.90807
 Alpha virt. eigenvalues --    4.95018   5.01851   5.08311   5.09471   5.19344
 Alpha virt. eigenvalues --    5.21955   5.24788   5.26262   5.30145   5.41437
 Alpha virt. eigenvalues --    5.42369   5.47598   5.50573   5.60026   5.75182
 Alpha virt. eigenvalues --    5.81402   5.96234   6.00470   6.33617   6.68269
 Alpha virt. eigenvalues --    6.72203   6.89412   6.90646   7.21714   7.61971
 Alpha virt. eigenvalues --   22.23956  22.64658  22.68842  22.79669  32.10167
 Alpha virt. eigenvalues --   32.15830  44.31586
  Beta  occ. eigenvalues --  -19.66467 -14.80669 -14.74537 -10.62923 -10.58052
  Beta  occ. eigenvalues --  -10.57362 -10.55324  -1.23454  -1.01945  -0.96372
  Beta  occ. eigenvalues --   -0.88303  -0.75774  -0.67814  -0.67046  -0.61540
  Beta  occ. eigenvalues --   -0.58434  -0.55039  -0.52236  -0.50255  -0.47463
  Beta  occ. eigenvalues --   -0.46481  -0.43852  -0.41479  -0.38531  -0.33806
  Beta  occ. eigenvalues --   -0.31608
  Beta virt. eigenvalues --   -0.03735   0.03035   0.06422   0.07961   0.09540
  Beta virt. eigenvalues --    0.11072   0.11840   0.13530   0.14431   0.16033
  Beta virt. eigenvalues --    0.16595   0.19505   0.20541   0.22506   0.23427
  Beta virt. eigenvalues --    0.23650   0.26792   0.28325   0.29600   0.30224
  Beta virt. eigenvalues --    0.32380   0.34630   0.34855   0.36550   0.39267
  Beta virt. eigenvalues --    0.39706   0.41033   0.42681   0.43057   0.43587
  Beta virt. eigenvalues --    0.45142   0.45946   0.46909   0.48476   0.49870
  Beta virt. eigenvalues --    0.51704   0.52109   0.53561   0.54558   0.55352
  Beta virt. eigenvalues --    0.57911   0.59614   0.60507   0.61991   0.63221
  Beta virt. eigenvalues --    0.64273   0.68472   0.72178   0.72621   0.76776
  Beta virt. eigenvalues --    0.80841   0.82232   0.84299   0.85178   0.95257
  Beta virt. eigenvalues --    0.95904   0.97578   0.97955   1.01154   1.03609
  Beta virt. eigenvalues --    1.04039   1.06139   1.07989   1.08879   1.12145
  Beta virt. eigenvalues --    1.14313   1.18094   1.21550   1.23278   1.25295
  Beta virt. eigenvalues --    1.28150   1.33336   1.34346   1.39681   1.41406
  Beta virt. eigenvalues --    1.44247   1.44894   1.49120   1.50298   1.53102
  Beta virt. eigenvalues --    1.53508   1.56504   1.57955   1.59152   1.61609
  Beta virt. eigenvalues --    1.67009   1.67158   1.73315   1.74761   1.76886
  Beta virt. eigenvalues --    1.80113   1.82508   1.84716   1.86819   1.87849
  Beta virt. eigenvalues --    1.90243   1.93058   1.94477   1.97180   2.00789
  Beta virt. eigenvalues --    2.01756   2.03058   2.06308   2.07443   2.09492
  Beta virt. eigenvalues --    2.10644   2.12514   2.16182   2.17245   2.22164
  Beta virt. eigenvalues --    2.24883   2.27984   2.30204   2.34243   2.36463
  Beta virt. eigenvalues --    2.36944   2.39702   2.40992   2.43215   2.48802
  Beta virt. eigenvalues --    2.49705   2.53242   2.56731   2.59658   2.61141
  Beta virt. eigenvalues --    2.65030   2.67100   2.67977   2.70733   2.75432
  Beta virt. eigenvalues --    2.77931   2.79298   2.80043   2.83639   2.88490
  Beta virt. eigenvalues --    2.90390   2.92580   2.94579   2.95449   2.98213
  Beta virt. eigenvalues --    2.98970   3.00538   3.02752   3.07131   3.10448
  Beta virt. eigenvalues --    3.12404   3.15253   3.16866   3.18281   3.20569
  Beta virt. eigenvalues --    3.21720   3.25483   3.26317   3.27938   3.30732
  Beta virt. eigenvalues --    3.31041   3.34775   3.36353   3.40626   3.42524
  Beta virt. eigenvalues --    3.44285   3.48811   3.50673   3.52139   3.56481
  Beta virt. eigenvalues --    3.58089   3.59145   3.64264   3.66557   3.73652
  Beta virt. eigenvalues --    3.75079   3.79400   3.86516   3.91315   3.94407
  Beta virt. eigenvalues --    3.97018   3.99428   4.05333   4.07698   4.10283
  Beta virt. eigenvalues --    4.14685   4.17206   4.24308   4.27557   4.31605
  Beta virt. eigenvalues --    4.35079   4.41157   4.44251   4.48126   4.56537
  Beta virt. eigenvalues --    4.61307   4.64596   4.67754   4.71367   4.74093
  Beta virt. eigenvalues --    4.76140   4.80157   4.81055   4.86881   4.89067
  Beta virt. eigenvalues --    4.90906   4.95421   5.01811   5.08314   5.09498
  Beta virt. eigenvalues --    5.19520   5.22060   5.24818   5.26313   5.30200
  Beta virt. eigenvalues --    5.41447   5.42436   5.47628   5.50606   5.60047
  Beta virt. eigenvalues --    5.75221   5.81427   5.96249   6.00469   6.33625
  Beta virt. eigenvalues --    6.68278   6.72230   6.89428   6.90645   7.21722
  Beta virt. eigenvalues --    7.61955  22.25164  22.64667  22.68861  22.79715
  Beta virt. eigenvalues --   32.10163  32.15825  44.31585
          Condensed to atoms (all electrons):
               1          2          3          4          5          6
     1  C    5.432019   0.303635  -0.060435   0.005132   0.007498  -0.062211
     2  C    0.303635   5.123789   0.263381  -0.052968  -0.027006   0.284894
     3  C   -0.060435   0.263381   5.123679   0.548241  -0.131389   0.029070
     4  N    0.005132  -0.052968   0.548241   6.465202   0.126937  -0.046346
     5  O    0.007498  -0.027006  -0.131389   0.126937   8.119236   0.212311
     6  C   -0.062211   0.284894   0.029070  -0.046346   0.212311   4.901651
     7  N   -0.006196  -0.038590   0.004409  -0.004675  -0.078560   0.261135
     8  H    0.416636  -0.040604   0.000835  -0.000146   0.000628  -0.007649
     9  H    0.422483  -0.057378  -0.002258  -0.000108  -0.000124   0.006437
    10  H   -0.054424   0.428640  -0.062793  -0.001897   0.009414  -0.050355
    11  H    0.003916  -0.043011   0.406774  -0.024639   0.006126   0.001769
    12  H   -0.000781  -0.033957   0.003316   0.006802  -0.041008   0.438817
    13  H    0.000468   0.007545  -0.000754  -0.000785   0.000936  -0.034585
    14  H   -0.002770  -0.001781   0.000237   0.002506  -0.002001  -0.029854
               7          8          9         10         11         12
     1  C   -0.006196   0.416636   0.422483  -0.054424   0.003916  -0.000781
     2  C   -0.038590  -0.040604  -0.057378   0.428640  -0.043011  -0.033957
     3  C    0.004409   0.000835  -0.002258  -0.062793   0.406774   0.003316
     4  N   -0.004675  -0.000146  -0.000108  -0.001897  -0.024639   0.006802
     5  O   -0.078560   0.000628  -0.000124   0.009414   0.006126  -0.041008
     6  C    0.261135  -0.007649   0.006437  -0.050355   0.001769   0.438817
     7  N    6.706705   0.007421   0.000663   0.007467   0.000469  -0.051678
     8  H    0.007421   0.435853  -0.016107   0.001760  -0.000134   0.000269
     9  H    0.000663  -0.016107   0.478403  -0.003457  -0.000446  -0.000316
    10  H    0.007467   0.001760  -0.003457   0.573042   0.002901  -0.006302
    11  H    0.000469  -0.000134  -0.000446   0.002901   0.487506  -0.000217
    12  H   -0.051678   0.000269  -0.000316  -0.006302  -0.000217   0.549911
    13  H    0.370919  -0.000389   0.000020  -0.000444   0.000019  -0.008428
    14  H    0.359307  -0.001162  -0.000404   0.000337  -0.000040   0.007991
              13         14
     1  C    0.000468  -0.002770
     2  C    0.007545  -0.001781
     3  C   -0.000754   0.000237
     4  N   -0.000785   0.002506
     5  O    0.000936  -0.002001
     6  C   -0.034585  -0.029854
     7  N    0.370919   0.359307
     8  H   -0.000389  -0.001162
     9  H    0.000020  -0.000404
    10  H   -0.000444   0.000337
    11  H    0.000019  -0.000040
    12  H   -0.008428   0.007991
    13  H    0.456316  -0.030769
    14  H   -0.030769   0.450408
          Atomic-Atomic Spin Densities.
               1          2          3          4          5          6
     1  C    1.136299   0.021844  -0.048410   0.003418   0.001949  -0.021099
     2  C    0.021844  -0.122052   0.006894   0.004943   0.002866  -0.013536
     3  C   -0.048410   0.006894   0.096914  -0.014681  -0.004000   0.024631
     4  N    0.003418   0.004943  -0.014681   0.011782  -0.001356  -0.004509
     5  O    0.001949   0.002866  -0.004000  -0.001356   0.006006  -0.005544
     6  C   -0.021099  -0.013536   0.024631  -0.004509  -0.005544   0.044520
     7  N    0.001176   0.010017  -0.003897   0.000598   0.001430  -0.014543
     8  H   -0.013481   0.005929   0.000329  -0.000005  -0.000061  -0.000785
     9  H   -0.009720   0.004073   0.001507  -0.000055   0.000003   0.000015
    10  H   -0.032202   0.037091  -0.030931   0.003858   0.000202  -0.014222
    11  H    0.002459   0.005829  -0.007863  -0.000157   0.000095  -0.001121
    12  H    0.000273   0.000015   0.000624  -0.000132  -0.000207  -0.000227
    13  H    0.000686  -0.000434   0.000000  -0.000022   0.000232  -0.001338
    14  H   -0.001477   0.003709  -0.001083  -0.000040   0.000110  -0.000433
               7          8          9         10         11         12
     1  C    0.001176  -0.013481  -0.009720  -0.032202   0.002459   0.000273
     2  C    0.010017   0.005929   0.004073   0.037091   0.005829   0.000015
     3  C   -0.003897   0.000329   0.001507  -0.030931  -0.007863   0.000624
     4  N    0.000598  -0.000005  -0.000055   0.003858  -0.000157  -0.000132
     5  O    0.001430  -0.000061   0.000003   0.000202   0.000095  -0.000207
     6  C   -0.014543  -0.000785   0.000015  -0.014222  -0.001121  -0.000227
     7  N    0.006970   0.001906  -0.000007   0.001512   0.000096   0.000097
     8  H    0.001906  -0.032789   0.001408  -0.000194  -0.000008   0.000014
     9  H   -0.000007   0.001408  -0.035050  -0.000241  -0.000059  -0.000012
    10  H    0.001512  -0.000194  -0.000241   0.078537   0.001094  -0.001257
    11  H    0.000096  -0.000008  -0.000059   0.001094   0.000670  -0.000019
    12  H    0.000097   0.000014  -0.000012  -0.001257  -0.000019   0.001919
    13  H    0.000359  -0.000057  -0.000005   0.000113   0.000008  -0.000110
    14  H   -0.000052   0.000164  -0.000005   0.000132   0.000056  -0.000111
              13         14
     1  C    0.000686  -0.001477
     2  C   -0.000434   0.003709
     3  C    0.000000  -0.001083
     4  N   -0.000022  -0.000040
     5  O    0.000232   0.000110
     6  C   -0.001338  -0.000433
     7  N    0.000359  -0.000052
     8  H   -0.000057   0.000164
     9  H   -0.000005  -0.000005
    10  H    0.000113   0.000132
    11  H    0.000008   0.000056
    12  H   -0.000110  -0.000111
    13  H    0.000210   0.000605
    14  H    0.000605  -0.003261
 Mulliken charges and spin densities:
               1          2
     1  C   -0.404970   1.041716
     2  C   -0.116590  -0.032811
     3  C   -0.122312   0.020035
     4  N   -0.023256   0.003643
     5  O   -0.202998   0.001726
     6  C    0.094917  -0.008190
     7  N   -0.538796   0.005662
     8  H    0.202786  -0.037629
     9  H    0.172591  -0.038148
    10  H    0.156112   0.043491
    11  H    0.159007   0.001080
    12  H    0.135580   0.000867
    13  H    0.239931   0.000245
    14  H    0.247997  -0.001686
 Sum of Mulliken charges =  -0.00000   1.00000
 Mulliken charges and spin densities with hydrogens summed into heavy atoms:
               1          2
     1  C   -0.029593   0.965939
     2  C    0.039522   0.010680
     3  C    0.036695   0.021115
     4  N   -0.023256   0.003643
     5  O   -0.202998   0.001726
     6  C    0.230498  -0.007323
     7  N   -0.050868   0.004220
 Electronic spatial extent (au):  <R**2>=            643.0386
 Charge=             -0.0000 electrons
 Dipole moment (field-independent basis, Debye):
    X=             -1.2381    Y=             -1.9462    Z=              0.3640  Tot=              2.3352
 Quadrupole moment (field-independent basis, Debye-Ang):
   XX=            -36.6895   YY=            -49.6832   ZZ=            -40.7124
   XY=             -2.8097   XZ=              1.1787   YZ=              2.2058
 Traceless Quadrupole moment (field-independent basis, Debye-Ang):
   XX=              5.6722   YY=             -7.3215   ZZ=              1.6493
   XY=             -2.8097   XZ=              1.1787   YZ=              2.2058
 Octapole moment (field-independent basis, Debye-Ang**2):
  XXX=             13.3138  YYY=              6.1793  ZZZ=              3.4573  XYY=             -2.1502
  XXY=             -0.2356  XXZ=             -2.3948  XZZ=              3.6963  YZZ=              3.1213
  YYZ=             -0.3761  XYZ=              1.7943
 Hexadecapole moment (field-independent basis, Debye-Ang**3):
 XXXX=           -292.4509 YYYY=           -410.9942 ZZZZ=           -129.4090 XXXY=            -33.9455
 XXXZ=            -14.0215 YYYX=            -18.7447 YYYZ=             41.4605 ZZZX=            -21.5246
 ZZZY=             30.0456 XXYY=           -122.6811 XXZZ=            -71.8343 YYZZ=            -94.2616
 XXYZ=              9.7111 YYXZ=             -8.7807 ZZXY=            -15.7425
 N-N= 3.099444240799D+02 E-N=-1.416259517720D+03  KE= 3.395929685842D+02
                          Isotropic Fermi Contact Couplings
        Atom                 a.u.       MegaHertz       Gauss      10(-4) cm-1
     1  C(13)              0.16173     181.81153      64.87488      60.64580
     2  C(13)             -0.03597     -40.43657     -14.42877     -13.48819
     3  C(13)              0.05605      63.00767      22.48270      21.01710
     4  N(14)              0.00037       0.11794       0.04208       0.03934
     5  O(17)              0.00317      -1.92130      -0.68557      -0.64088
     6  C(13)              0.00081       0.91162       0.32529       0.30408
     7  N(14)             -0.00081      -0.26226      -0.09358      -0.08748
     8  H(1)              -0.01698     -75.88282     -27.07688     -25.31178
     9  H(1)              -0.01642     -73.40818     -26.19386     -24.48633
    10  H(1)               0.02154      96.27208      34.35227      32.11291
    11  H(1)              -0.00051      -2.27515      -0.81183      -0.75891
    12  H(1)              -0.00015      -0.67885      -0.24223      -0.22644
    13  H(1)               0.00020       0.90447       0.32274       0.30170
    14  H(1)               0.00022       0.98779       0.35247       0.32949
 --------------------------------------------------------
       Center         ----  Spin Dipole Couplings  ----
                      3XX-RR        3YY-RR        3ZZ-RR
 --------------------------------------------------------
     1   Atom       -0.424518     -0.509493      0.934011
     2   Atom       -0.010399      0.001901      0.008498
     3   Atom       -0.031921      0.036501     -0.004579
     4   Atom        0.016154     -0.008852     -0.007301
     5   Atom       -0.008811     -0.008923      0.017734
     6   Atom        0.004859     -0.000981     -0.003878
     7   Atom        0.008511     -0.008815      0.000303
     8   Atom       -0.011129      0.020946     -0.009817
     9   Atom        0.067479     -0.067337     -0.000142
    10   Atom       -0.008206      0.010785     -0.002580
    11   Atom       -0.004680      0.005629     -0.000949
    12   Atom        0.002079     -0.001718     -0.000361
    13   Atom        0.004397     -0.002313     -0.002084
    14   Atom        0.011242     -0.006110     -0.005132
 --------------------------------------------------------
                        XY            XZ            YZ
 --------------------------------------------------------
     1   Atom        0.066876     -0.416168     -0.246068
     2   Atom        0.006626     -0.004035      0.002639
     3   Atom        0.012535     -0.011401     -0.040032
     4   Atom        0.025407     -0.012791     -0.015919
     5   Atom        0.002784      0.001919      0.002980
     6   Atom        0.008393      0.004032      0.002955
     7   Atom        0.002319      0.004036      0.004609
     8   Atom       -0.067809     -0.011682     -0.017232
     9   Atom        0.019253      0.021610     -0.005540
    10   Atom       -0.000301     -0.001587      0.012517
    11   Atom       -0.003282      0.004013     -0.007291
    12   Atom        0.003425      0.004536      0.002676
    13   Atom        0.000882      0.000815      0.000171
    14   Atom        0.002550     -0.002744     -0.000621
 --------------------------------------------------------


 ---------------------------------------------------------------------------------
              Anisotropic Spin Dipole Couplings in Principal Axis System
 ---------------------------------------------------------------------------------

       Atom             a.u.   MegaHertz   Gauss  10(-4) cm-1        Axes

              Baa    -0.5507   -73.903   -26.370   -24.651  0.2090  0.9536  0.2166
     1 C(13)  Bbb    -0.5412   -72.627   -25.915   -24.226  0.9405 -0.2566  0.2225
              Bcc     1.0920   146.531    52.286    48.877 -0.2678 -0.1572  0.9506
 
              Baa    -0.0143    -1.917    -0.684    -0.639  0.8937 -0.3993  0.2045
     2 C(13)  Bbb     0.0047     0.626     0.223     0.209  0.4325  0.8880 -0.1561
              Bcc     0.0096     1.291     0.461     0.431 -0.1193  0.2280  0.9663
 
              Baa    -0.0362    -4.857    -1.733    -1.620  0.9023  0.0779  0.4240
     3 C(13)  Bbb    -0.0277    -3.711    -1.324    -1.238 -0.3956  0.5406  0.7425
              Bcc     0.0638     8.568     3.057     2.858  0.1714  0.8377 -0.5186
 
              Baa    -0.0278    -1.074    -0.383    -0.358 -0.3581  0.8328  0.4222
     4 N(14)  Bbb    -0.0121    -0.467    -0.166    -0.156  0.5386 -0.1851  0.8219
              Bcc     0.0399     1.541     0.550     0.514  0.7627  0.5218 -0.3823
 
              Baa    -0.0117     0.845     0.301     0.282 -0.6869  0.7262 -0.0288
     5 O(17)  Bbb    -0.0066     0.475     0.170     0.159  0.7221  0.6775 -0.1401
              Bcc     0.0182    -1.320    -0.471    -0.440  0.0822  0.1170  0.9897
 
              Baa    -0.0070    -0.933    -0.333    -0.311 -0.5690  0.8212 -0.0431
     6 C(13)  Bbb    -0.0054    -0.726    -0.259    -0.242 -0.2654 -0.1338  0.9548
              Bcc     0.0124     1.659     0.592     0.553  0.7783  0.5547  0.2941
 
              Baa    -0.0108    -0.415    -0.148    -0.138 -0.0332  0.9268 -0.3741
     7 N(14)  Bbb    -0.0002    -0.008    -0.003    -0.003 -0.4664  0.3167  0.8259
              Bcc     0.0110     0.423     0.151     0.141  0.8839  0.2019  0.4218
 
              Baa    -0.0712   -37.999   -13.559   -12.675  0.7376  0.6004  0.3088
     8 H(1)   Bbb    -0.0038    -2.053    -0.733    -0.685 -0.2893 -0.1323  0.9481
              Bcc     0.0751    40.052    14.292    13.360 -0.6101  0.7887 -0.0761
 
              Baa    -0.0711   -37.931   -13.535   -12.653 -0.1555  0.9800  0.1239
     9 H(1)   Bbb    -0.0047    -2.521    -0.899    -0.841 -0.2438 -0.1596  0.9566
              Bcc     0.0758    40.452    14.434    13.493  0.9573  0.1185  0.2637
 
              Baa    -0.0107    -5.700    -2.034    -1.901  0.4435 -0.4468  0.7770
    10 H(1)   Bbb    -0.0077    -4.083    -1.457    -1.362  0.8954  0.2601 -0.3615
              Bcc     0.0183     9.783     3.491     3.263 -0.0405  0.8560  0.5154
 
              Baa    -0.0075    -3.978    -1.419    -1.327  0.7332 -0.1813 -0.6554
    11 H(1)   Bbb    -0.0044    -2.332    -0.832    -0.778  0.6157  0.5861  0.5267
              Bcc     0.0118     6.310     2.252     2.105 -0.2886  0.7897 -0.5413
 
              Baa    -0.0039    -2.055    -0.733    -0.685 -0.4640 -0.3004  0.8334
    12 H(1)   Bbb    -0.0037    -1.993    -0.711    -0.665 -0.5186  0.8548  0.0193
              Bcc     0.0076     4.048     1.444     1.350  0.7182  0.4232  0.5524
 
              Baa    -0.0024    -1.304    -0.465    -0.435 -0.0954  0.9653 -0.2431
    13 H(1)   Bbb    -0.0022    -1.158    -0.413    -0.386 -0.1499  0.2275  0.9622
              Bcc     0.0046     2.462     0.878     0.821  0.9841  0.1283  0.1230
 
              Baa    -0.0065    -3.484    -1.243    -1.162 -0.1041  0.9685  0.2260
    14 H(1)   Bbb    -0.0055    -2.955    -1.054    -0.986  0.1881 -0.2040  0.9607
              Bcc     0.0121     6.438     2.297     2.148  0.9766  0.1425 -0.1609
 

 ---------------------------------------------------------------------------------

 Unable to Open any file for archive entry.
 1\1\GINC-R1I3N10\Stability\UM062X\def2TZVP\C4H7N2O1(2)\UZG38MN\11-Sep-
 2023\0\\# um062x Def2TZVP stable=opt NoSymm\\r1_C4H7N2O_sp_g16\\0,2\C,
 0,-1.40108873,-1.65844204,-0.0536869\C,0,-0.92013673,-0.30745104,0.341
 4221\C,0,-0.94937073,0.75144096,-0.7448699\N,0,0.05906727,1.52366696,-
 0.7288749\O,0,0.91236927,1.13983096,0.2795561\C,0,0.56599127,-0.191896
 04,0.7277211\N,0,1.37000627,-1.20521804,0.1310411\H,0,-0.73738073,-2.5
 1849104,0.0104721\H,0,-2.44326173,-1.79685104,-0.3404099\H,0,-1.535857
 73,0.08801096,1.1742661\H,0,-1.74595273,0.90654996,-1.4736349\H,0,0.72
 874927,-0.19088904,1.8124501\H,0,2.35214627,-1.05063204,0.3465011\H,0,
 1.26856727,-1.19776704,-0.8837559\\Version=ES64L-G16RevC.01\HF=-341.22
 19898\S2=0.755414\S2-1=0.\S2A=0.750023\RMSD=8.539e-09\Dipole=-0.487088
 5,-0.765698,0.1432003\Quadrupole=4.2171593,-5.4433864,1.226227,-2.0889
 695,0.8763069,1.6399241\PG=C01 [X(C4H7N2O1)]\\@
 The archive entry for this job was punched.


 Discoveries are often made by not following instructions,
 by going off the main road, by trying the untried.
 -- Frank Tyger
 Job cpu time:       0 days  0 hours 51 minutes  1.2 seconds.
 Elapsed time:       0 days  0 hours  2 minutes  8.8 seconds.
 File lengths (MBytes):  RWF=   1504 Int=      0 D2E=      0 Chk=     32 Scr=     32
 Normal termination of Gaussian 16 at Mon Sep 11 12:30:05 2023.
