 Entering Gaussian System, Link 0=/gpfslocalsup/prod/g16/rev-C01/g16/g16
 Input=TS_ts_guess_3iwCru_template_11-21_1-11_sp_g16.com
 Output=TS_ts_guess_3iwCru_template_11-21_1-11_sp_g16.log
 Initial command:
 /gpfslocalsup/prod/g16/rev-C01/g16/l1.exe "/gpfsssd/jobscratch/uzg38mn_1841822/Gau-1796413.inp" -scrdir="/gpfsssd/jobscratch/uzg38mn_1841822/"
 Entering Link 1 = /gpfslocalsup/prod/g16/rev-C01/g16/l1.exe PID=   1796414.
  
 Copyright (c) 1988-2019, Gaussian, Inc.  All Rights Reserved.
  
 This is part of the Gaussian(R) 16 program.  It is based on
 the Gaussian(R) 09 system (copyright 2009, Gaussian, Inc.),
 the Gaussian(R) 03 system (copyright 2003, Gaussian, Inc.),
 the Gaussian(R) 98 system (copyright 1998, Gaussian, Inc.),
 the Gaussian(R) 94 system (copyright 1995, Gaussian, Inc.),
 the Gaussian 92(TM) system (copyright 1992, Gaussian, Inc.),
 the Gaussian 90(TM) system (copyright 1990, Gaussian, Inc.),
 the Gaussian 88(TM) system (copyright 1988, Gaussian, Inc.),
 the Gaussian 86(TM) system (copyright 1986, Carnegie Mellon
 University), and the Gaussian 82(TM) system (copyright 1983,
 Carnegie Mellon University). Gaussian is a federally registered
 trademark of Gaussian, Inc.
  
 This software contains proprietary and confidential information,
 including trade secrets, belonging to Gaussian, Inc.
  
 This software is provided under written license and may be
 used, copied, transmitted, or stored only in accord with that
 written license.
  
 The following legend is applicable only to US Government
 contracts under FAR:
  
                    RESTRICTED RIGHTS LEGEND
  
 Use, reproduction and disclosure by the US Government is
 subject to restrictions as set forth in subparagraphs (a)
 and (c) of the Commercial Computer Software - Restricted
 Rights clause in FAR 52.227-19.
  
 Gaussian, Inc.
 340 Quinnipiac St., Bldg. 40, Wallingford CT 06492
  
  
 ---------------------------------------------------------------
 Warning -- This program may not be used in any manner that
 competes with the business of Gaussian, Inc. or will provide
 assistance to any competitor of Gaussian, Inc.  The licensee
 of this program is prohibited from giving any competitor of
 Gaussian, Inc. access to this program.  By using this program,
 the user acknowledges that Gaussian, Inc. is engaged in the
 business of creating and licensing software in the field of
 computational chemistry and represents and warrants to the
 licensee that it is not a competitor of Gaussian, Inc. and that
 it will not use this program in any manner prohibited above.
 ---------------------------------------------------------------
  

 Cite this work as:
 Gaussian 16, Revision C.01,
 M. J. Frisch, G. W. Trucks, H. B. Schlegel, G. E. Scuseria, 
 M. A. Robb, J. R. Cheeseman, G. Scalmani, V. Barone, 
 G. A. Petersson, H. Nakatsuji, X. Li, M. Caricato, A. V. Marenich, 
 J. Bloino, B. G. Janesko, R. Gomperts, B. Mennucci, H. P. Hratchian, 
 J. V. Ortiz, A. F. Izmaylov, J. L. Sonnenberg, D. Williams-Young, 
 F. Ding, F. Lipparini, F. Egidi, J. Goings, B. Peng, A. Petrone, 
 T. Henderson, D. Ranasinghe, V. G. Zakrzewski, J. Gao, N. Rega, 
 G. Zheng, W. Liang, M. Hada, M. Ehara, K. Toyota, R. Fukuda, 
 J. Hasegawa, M. Ishida, T. Nakajima, Y. Honda, O. Kitao, H. Nakai, 
 T. Vreven, K. Throssell, J. A. Montgomery, Jr., J. E. Peralta, 
 F. Ogliaro, M. J. Bearpark, J. J. Heyd, E. N. Brothers, K. N. Kudin, 
 V. N. Staroverov, T. A. Keith, R. Kobayashi, J. Normand, 
 K. Raghavachari, A. P. Rendell, J. C. Burant, S. S. Iyengar, 
 J. Tomasi, M. Cossi, J. M. Millam, M. Klene, C. Adamo, R. Cammi, 
 J. W. Ochterski, R. L. Martin, K. Morokuma, O. Farkas, 
 J. B. Foresman, and D. J. Fox, Gaussian, Inc., Wallingford CT, 2019.
 
 ******************************************
 Gaussian 16:  ES64L-G16RevC.01  3-Jul-2019
                11-Sep-2023 
 ******************************************
 %mem=96000MB
 %nprocshared=24
 Will use up to   24 processors via shared memory.
 -------------------------------------------------
 # um062x Def2TZVP stable=opt Geom=ModRedun NoSymm
 -------------------------------------------------
 1/18=120,38=1,172=1/1;
 2/12=2,15=1,17=6,18=5,40=1/2;
 3/5=44,7=101,11=2,25=1,30=1,74=-55,116=2/1,2,3;
 4//1;
 5/5=2,38=5/2;
 6/7=2,8=2,9=2,10=2,28=1/1;
 8/6=1,10=90,11=11/1;
 9/8=-3,42=1,46=1/14;
 5/5=2,8=3,17=40,38=5/8(-2);
 6/7=2,8=2,9=2,10=2,28=1/1;
 99/5=1,9=1/99;
 ---------------------------------------------
 TS_ts_guess_3iwCru_template_11-21_1-11_sp_g16
 ---------------------------------------------
 Symbolic Z-matrix:
 Charge =  0 Multiplicity = 2
 C                    -2.00294   1.45497   1.5852 
 C                    -0.97106   1.58469   0.48563 
 C                    -1.38025   2.51902  -0.63131 
 C                     0.41648   1.8585    1.04722 
 N                     1.44423   2.02467   0.04586 
 C                     1.81171   0.87941  -0.75442 
 C                     1.98441   3.23989  -0.24206 
 O                     2.78843   3.45475  -1.11699 
 H                    -1.66651   0.76647   2.37579 
 H                    -2.18882   2.43321   2.06241 
 H                    -2.96532   1.09323   1.19338 
 H                    -0.97308   0.39566  -0.07988 
 H                    -2.36999   2.24928  -1.0291 
 H                    -0.6581    2.50273  -1.46118 
 H                    -1.44194   3.56004  -0.26616 
 H                     0.37734   2.78843   1.64525 
 H                     0.69572   1.03665   1.72656 
 H                     2.7938    1.06578  -1.2045 
 H                     1.84221  -0.01357  -0.11301 
 H                     1.08497   0.704    -1.56769 
 H                     1.60659   4.03776   0.43958 
 C                    -1.39431  -0.77155  -0.76113 
 C                    -0.33782  -1.85213  -0.84844 
 C                    -0.95177  -3.12703  -1.38236 
 N                    -1.12963  -4.02412  -0.4969 
 O                    -0.62656  -3.59325   0.70329 
 C                     0.16487  -2.399     0.50051 
 N                     0.06695  -1.50167   1.5977 
 H                    -2.28036  -1.05792  -0.17621 
 H                    -1.67797  -0.34687  -1.7324 
 H                     0.50277  -1.51513  -1.46824 
 H                    -1.32257  -3.2877   -2.39561 
 H                     1.21391  -2.72682   0.40295 
 H                     0.42176  -1.93729   2.44645 
 H                    -0.90793  -1.2538    1.76367 
 
 Add virtual bond connecting atoms H12        and C2         Dist= 2.49D+00.
 Add virtual bond connecting atoms C22        and H12        Dist= 2.68D+00.
 The following ModRedundant input section has been read:
 B       2      12 B                                                           
 B      12      22 B                                                           
 
                           ----------------------------
                           !    Current Parameters    !
                           ! (Angstroms and Degrees)  !
 --------------------------                            --------------------------
 ! Name  Definition              Value                                          !
 --------------------------------------------------------------------------------
 ! R1    R(1,2)                  1.5135                                         !
 ! R2    R(1,9)                  1.101                                          !
 ! R3    R(1,10)                 1.1042                                         !
 ! R4    R(1,11)                 1.1003                                         !
 ! R5    R(2,3)                  1.5126                                         !
 ! R6    R(2,4)                  1.5217                                         !
 ! R7    R(2,12)                 1.3167                                         !
 ! R8    R(3,13)                 1.1003                                         !
 ! R9    R(3,14)                 1.1002                                         !
 ! R10   R(3,15)                 1.1049                                         !
 ! R11   R(4,5)                  1.4445                                         !
 ! R12   R(4,16)                 1.1063                                         !
 ! R13   R(4,17)                 1.1022                                         !
 ! R14   R(5,6)                  1.4447                                         !
 ! R15   R(5,7)                  1.3607                                         !
 ! R16   R(6,18)                 1.0963                                         !
 ! R17   R(6,19)                 1.0999                                         !
 ! R18   R(6,20)                 1.1047                                         !
 ! R19   R(7,8)                  1.2075                                         !
 ! R20   R(7,21)                 1.1153                                         !
 ! R21   R(12,22)                1.4156                                         !
 ! R22   R(22,23)                1.5138                                         !
 ! R23   R(22,29)                1.0996                                         !
 ! R24   R(22,30)                1.0973                                         !
 ! R25   R(23,24)                1.5124                                         !
 ! R26   R(23,27)                1.5399                                         !
 ! R27   R(23,31)                1.0974                                         !
 ! R28   R(24,25)                1.273                                          !
 ! R29   R(24,32)                1.0909                                         !
 ! R30   R(25,26)                1.3708                                         !
 ! R31   R(26,27)                1.447                                          !
 ! R32   R(27,28)                1.4208                                         !
 ! R33   R(27,33)                1.1034                                         !
 ! R34   R(28,34)                1.0179                                         !
 ! R35   R(28,35)                1.0195                                         !
 ! A1    A(2,1,9)              111.5268                                         !
 ! A2    A(2,1,10)             110.6604                                         !
 ! A3    A(2,1,11)             111.4572                                         !
 ! A4    A(9,1,10)             107.1643                                         !
 ! A5    A(9,1,11)             108.5053                                         !
 ! A6    A(10,1,11)            107.3337                                         !
 ! A7    A(1,2,3)              113.8893                                         !
 ! A8    A(1,2,4)              111.6527                                         !
 ! A9    A(1,2,12)             103.5088                                         !
 ! A10   A(3,2,4)              114.0816                                         !
 ! A11   A(3,2,12)             103.9013                                         !
 ! A12   A(4,2,12)             108.8082                                         !
 ! A13   A(2,3,13)             111.0319                                         !
 ! A14   A(2,3,14)             111.7324                                         !
 ! A15   A(2,3,15)             110.6739                                         !
 ! A16   A(13,3,14)            108.3068                                         !
 ! A17   A(13,3,15)            107.4717                                         !
 ! A18   A(14,3,15)            107.4494                                         !
 ! A19   A(2,4,5)              114.4329                                         !
 ! A20   A(2,4,16)             108.5715                                         !
 ! A21   A(2,4,17)             108.9231                                         !
 ! A22   A(5,4,16)             107.6498                                         !
 ! A23   A(5,4,17)             109.4372                                         !
 ! A24   A(16,4,17)            107.6097                                         !
 ! A25   A(4,5,6)              118.2806                                         !
 ! A26   A(4,5,7)              122.1329                                         !
 ! A27   A(6,5,7)              119.327                                          !
 ! A28   A(5,6,18)             108.6954                                         !
 ! A29   A(5,6,19)             109.1252                                         !
 ! A30   A(5,6,20)             111.4909                                         !
 ! A31   A(18,6,19)            110.6467                                         !
 ! A32   A(18,6,20)            108.3058                                         !
 ! A33   A(19,6,20)            108.5806                                         !
 ! A34   A(5,7,8)              125.2098                                         !
 ! A35   A(5,7,21)             112.0295                                         !
 ! A36   A(8,7,21)             122.7572                                         !
 ! A37   A(2,12,22)            162.1307                                         !
 ! A38   A(12,22,23)           114.1205                                         !
 ! A39   A(12,22,29)           101.4496                                         !
 ! A40   A(12,22,30)           100.5899                                         !
 ! A41   A(23,22,29)           114.0253                                         !
 ! A42   A(23,22,30)           113.93                                           !
 ! A43   A(29,22,30)           111.3035                                         !
 ! A44   A(22,23,24)           109.8024                                         !
 ! A45   A(22,23,27)           115.5189                                         !
 ! A46   A(22,23,31)           110.3625                                         !
 ! A47   A(24,23,27)            98.1868                                         !
 ! A48   A(24,23,31)           111.7414                                         !
 ! A49   A(27,23,31)           110.7171                                         !
 ! A50   A(23,24,25)           113.9044                                         !
 ! A51   A(23,24,32)           126.1609                                         !
 ! A52   A(25,24,32)           119.657                                          !
 ! A53   A(24,25,26)           109.6468                                         !
 ! A54   A(25,26,27)           109.7216                                         !
 ! A55   A(23,27,26)           103.7278                                         !
 ! A56   A(23,27,28)           115.447                                          !
 ! A57   A(23,27,33)           109.78                                           !
 ! A58   A(26,27,28)           112.0462                                         !
 ! A59   A(26,27,33)           106.6903                                         !
 ! A60   A(28,27,33)           108.7508                                         !
 ! A61   A(27,28,34)           110.4634                                         !
 ! A62   A(27,28,35)           110.1928                                         !
 ! A63   A(34,28,35)           107.5561                                         !
 ! D1    D(9,1,2,3)            179.9404                                         !
 ! D2    D(9,1,2,4)            -49.0654                                         !
 ! D3    D(9,1,2,12)            67.8144                                         !
 ! D4    D(10,1,2,3)           -60.8645                                         !
 ! D5    D(10,1,2,4)            70.1297                                         !
 ! D6    D(10,1,2,12)         -172.9904                                         !
 ! D7    D(11,1,2,3)            58.4981                                         !
 ! D8    D(11,1,2,4)          -170.5077                                         !
 ! D9    D(11,1,2,12)          -53.6278                                         !
 ! D10   D(1,2,3,13)           -52.7145                                         !
 ! D11   D(1,2,3,14)          -173.7479                                         !
 ! D12   D(1,2,3,15)            66.5535                                         !
 ! D13   D(4,2,3,13)           177.4954                                         !
 ! D14   D(4,2,3,14)            56.462                                          !
 ! D15   D(4,2,3,15)           -63.2366                                         !
 ! D16   D(12,2,3,13)           59.1747                                         !
 ! D17   D(12,2,3,14)          -61.8587                                         !
 ! D18   D(12,2,3,15)          178.4426                                         !
 ! D19   D(1,2,4,5)           -178.6113                                         !
 ! D20   D(1,2,4,16)           -58.3492                                         !
 ! D21   D(1,2,4,17)            58.5594                                         !
 ! D22   D(3,2,4,5)            -47.7157                                         !
 ! D23   D(3,2,4,16)            72.5464                                         !
 ! D24   D(3,2,4,17)          -170.545                                          !
 ! D25   D(12,2,4,5)            67.7657                                         !
 ! D26   D(12,2,4,16)         -171.9722                                         !
 ! D27   D(12,2,4,17)          -55.0637                                         !
 ! D28   D(1,2,12,22)           60.6493                                         !
 ! D29   D(3,2,12,22)          -58.594                                          !
 ! D30   D(4,2,12,22)          179.5116                                         !
 ! D31   D(2,4,5,6)            -67.1684                                         !
 ! D32   D(2,4,5,7)            106.9369                                         !
 ! D33   D(16,4,5,6)           172.0581                                         !
 ! D34   D(16,4,5,7)           -13.8366                                         !
 ! D35   D(17,4,5,6)            55.3823                                         !
 ! D36   D(17,4,5,7)          -130.5124                                         !
 ! D37   D(4,5,6,18)          -161.2029                                         !
 ! D38   D(4,5,6,19)           -40.4499                                         !
 ! D39   D(4,5,6,20)            79.4831                                         !
 ! D40   D(7,5,6,18)            24.522                                          !
 ! D41   D(7,5,6,19)           145.275                                          !
 ! D42   D(7,5,6,20)           -94.792                                          !
 ! D43   D(4,5,7,8)           -175.5665                                         !
 ! D44   D(4,5,7,21)             5.1002                                         !
 ! D45   D(6,5,7,8)             -1.5209                                         !
 ! D46   D(6,5,7,21)           179.1458                                         !
 ! D47   D(2,12,22,23)        -176.0839                                         !
 ! D48   D(2,12,22,29)         -53.0023                                         !
 ! D49   D(2,12,22,30)          61.5154                                         !
 ! D50   D(12,22,23,24)        170.6435                                         !
 ! D51   D(12,22,23,27)         60.7909                                         !
 ! D52   D(12,22,23,31)        -65.7435                                         !
 ! D53   D(29,22,23,24)         54.6854                                         !
 ! D54   D(29,22,23,27)        -55.1673                                         !
 ! D55   D(29,22,23,31)        178.2984                                         !
 ! D56   D(30,22,23,24)        -74.5855                                         !
 ! D57   D(30,22,23,27)        175.5618                                         !
 ! D58   D(30,22,23,31)         49.0275                                         !
 ! D59   D(22,23,24,25)       -105.3814                                         !
 ! D60   D(22,23,24,32)         68.4985                                         !
 ! D61   D(27,23,24,25)         15.576                                          !
 ! D62   D(27,23,24,32)       -170.544                                          !
 ! D63   D(31,23,24,25)        131.8165                                         !
 ! D64   D(31,23,24,32)        -54.3036                                         !
 ! D65   D(22,23,27,26)         96.3598                                         !
 ! D66   D(22,23,27,28)        -26.6066                                         !
 ! D67   D(22,23,27,33)       -149.9349                                         !
 ! D68   D(24,23,27,26)        -20.2521                                         !
 ! D69   D(24,23,27,28)       -143.2184                                         !
 ! D70   D(24,23,27,33)         93.4532                                         !
 ! D71   D(31,23,27,26)       -137.2858                                         !
 ! D72   D(31,23,27,28)         99.7478                                         !
 ! D73   D(31,23,27,33)        -23.5805                                         !
 ! D74   D(23,24,25,26)         -3.6542                                         !
 ! D75   D(32,24,25,26)       -177.9697                                         !
 ! D76   D(24,25,26,27)        -11.4175                                         !
 ! D77   D(25,26,27,23)         20.7414                                         !
 ! D78   D(25,26,27,28)        145.9202                                         !
 ! D79   D(25,26,27,33)        -95.1666                                         !
 ! D80   D(23,27,28,34)       -179.7817                                         !
 ! D81   D(23,27,28,35)         61.5145                                         !
 ! D82   D(26,27,28,34)         61.7785                                         !
 ! D83   D(26,27,28,35)        -56.9253                                         !
 ! D84   D(33,27,28,34)        -55.9119                                         !
 ! D85   D(33,27,28,35)       -174.6157                                         !
 --------------------------------------------------------------------------------
                          Input orientation:                          
 ---------------------------------------------------------------------
 Center     Atomic      Atomic             Coordinates (Angstroms)
 Number     Number       Type             X           Y           Z
 ---------------------------------------------------------------------
      1          6           0       -2.002939    1.454974    1.585201
      2          6           0       -0.971056    1.584688    0.485634
      3          6           0       -1.380252    2.519018   -0.631306
      4          6           0        0.416475    1.858500    1.047215
      5          7           0        1.444228    2.024674    0.045862
      6          6           0        1.811713    0.879413   -0.754416
      7          6           0        1.984413    3.239886   -0.242058
      8          8           0        2.788433    3.454754   -1.116995
      9          1           0       -1.666507    0.766474    2.375794
     10          1           0       -2.188823    2.433213    2.062406
     11          1           0       -2.965318    1.093234    1.193376
     12          1           0       -0.973076    0.395656   -0.079878
     13          1           0       -2.369990    2.249283   -1.029096
     14          1           0       -0.658101    2.502727   -1.461182
     15          1           0       -1.441938    3.560042   -0.266162
     16          1           0        0.377341    2.788428    1.645252
     17          1           0        0.695722    1.036653    1.726559
     18          1           0        2.793802    1.065780   -1.204499
     19          1           0        1.842206   -0.013572   -0.113012
     20          1           0        1.084971    0.703999   -1.567693
     21          1           0        1.606594    4.037757    0.439581
     22          6           0       -1.394314   -0.771548   -0.761132
     23          6           0       -0.337816   -1.852132   -0.848436
     24          6           0       -0.951772   -3.127030   -1.382356
     25          7           0       -1.129631   -4.024119   -0.496897
     26          8           0       -0.626561   -3.593252    0.703285
     27          6           0        0.164873   -2.399002    0.500513
     28          7           0        0.066946   -1.501665    1.597702
     29          1           0       -2.280356   -1.057917   -0.176210
     30          1           0       -1.677968   -0.346872   -1.732396
     31          1           0        0.502769   -1.515134   -1.468241
     32          1           0       -1.322570   -3.287703   -2.395607
     33          1           0        1.213908   -2.726819    0.402954
     34          1           0        0.421762   -1.937287    2.446446
     35          1           0       -0.907926   -1.253802    1.763673
 ---------------------------------------------------------------------
                    Distance matrix (angstroms):
                    1          2          3          4          5
     1  C    0.000000
     2  C    1.513491   0.000000
     3  C    2.536303   1.512603   0.000000
     4  C    2.511140   1.521706   2.545966   0.000000
     5  N    3.817995   2.494110   2.946289   1.444506   0.000000
     6  C    4.511834   3.127130   3.590557   2.480156   1.444684
     7  C    4.735374   3.464681   3.462966   2.455378   1.360676
     8  O    5.853053   4.494366   4.299934   3.585808   2.281283
     9  H    1.101025   2.173898   3.492278   2.701195   4.085134
    10  H    1.104187   2.165447   2.813758   2.854555   4.175214
    11  H    1.100253   2.172443   2.806200   3.470377   4.650641
    12  H    2.226041   1.316664   2.231262   2.311083   2.917682
    13  H    2.756846   2.166359   1.100261   3.496879   3.969161
    14  H    3.490963   2.175047   1.100210   2.803890   2.630495
    15  H    2.858947   2.165398   1.104928   2.841461   3.284002
    16  H    2.729000   2.147528   2.888673   1.106321   2.068723
    17  H    2.734547   2.149043   3.473701   1.102234   2.088346
    18  H    5.562609   4.159323   4.456813   3.369021   2.074664
    19  H    4.452605   3.290479   4.131208   2.623640   2.082804
    20  H    4.476594   3.036283   3.201318   2.935558   2.115847
    21  H    4.583878   3.558644   3.517757   2.556318   2.057640
    22  C    3.291368   2.699152   3.293156   3.669636   4.065393
    23  C    4.430821   3.740651   4.498974   4.234529   4.359481
    24  C    5.559326   5.068535   5.711876   5.712305   5.858385
    25  N    5.926066   5.696422   6.549314   6.275343   6.596001
    26  O    5.306296   5.193949   6.301510   5.561278   6.023410
    27  C    4.552921   4.142504   5.277816   4.299827   4.627350
    28  N    3.609196   3.440889   4.819621   3.422852   4.091476
    29  H    3.081258   3.022526   3.716418   4.156339   4.839856
    30  H    3.789288   3.024947   3.084536   4.120266   4.305176
    31  H    4.942026   3.949517   4.529968   4.209082   3.963470
    32  H    6.229183   5.671447   6.069110   6.431229   6.468175
    33  H    5.406774   4.834252   5.942909   4.698523   4.770456
    34  H    4.257740   4.264860   5.707755   4.045476   4.743983
    35  H    2.927178   3.113582   4.493683   3.457423   4.385420
                    6          7          8          9         10
     6  C    0.000000
     7  C    2.421605   0.000000
     8  O    2.778098   1.207531   0.000000
     9  H    4.680703   5.128366   6.266811   0.000000
    10  H    5.133524   4.834995   5.993765   1.774555   0.000000
    11  H    5.163297   5.582869   6.634775   1.786559   1.775866
    12  H    2.905869   4.106420   4.958089   2.578503   3.196726
    13  H    4.408927   4.534484   5.298133   3.779800   3.102263
    14  H    3.038856   3.002090   3.592133   4.330571   3.842345
    15  H    4.243867   3.441360   4.316369   3.851543   2.692547
    16  H    3.385287   2.519610   3.726575   2.966362   2.624003
    17  H    2.724958   3.223416   4.279305   2.464676   3.222386
    18  H    1.096269   2.511601   2.390582   5.727341   6.113027
    19  H    1.099887   3.259120   3.732642   4.371921   5.193110
    20  H    1.104692   2.999504   3.266736   4.808911   5.185126
    21  H    3.382727   1.115337   2.039501   5.016314   4.428692
    22  C    3.606151   5.270373   5.956815   3.504270   4.344434
    23  C    3.477162   5.629306   6.165111   4.360983   5.501219
    24  C    4.907417   7.103456   7.574921   5.458380   6.656800
    25  N    5.723849   7.907464   8.465772   5.611628   7.026312
    26  O    5.298566   7.375814   8.040522   4.783930   6.372296
    27  C    3.877491   5.971532   6.615577   4.109850   5.597294
    28  N    3.774414   5.435412   6.272333   2.958841   4.559354
    29  H    4.564274   6.055056   6.851416   3.196551   4.148225
    30  H    3.825976   5.338443   5.897442   4.256395   4.731846
    31  H    2.820769   5.129231   5.481553   4.968712   5.941345
    32  H    5.466452   7.627800   7.999745   6.270639   7.304324
    33  H    3.834291   6.050726   6.557531   4.938824   6.399866
    34  H    4.484560   6.039292   6.882830   3.417043   5.105283
    35  H    4.276425   5.708048   6.643178   2.243134   3.914590
                   11         12         13         14         15
    11  H    0.000000
    12  H    2.465120   0.000000
    13  H    2.574927   2.507652   0.000000
    14  H    3.789010   2.539086   1.783675   0.000000
    15  H    3.245933   3.204352   1.778043   1.777748   0.000000
    16  H    3.775082   3.244234   3.871775   3.286898   2.749303
    17  H    3.700095   2.541452   4.296824   3.760838   3.861090
    18  H    6.238431   3.987883   5.300584   3.747844   5.004329
    19  H    5.103328   2.845062   4.868503   3.794846   4.855901
    20  H    4.917301   2.558169   3.822924   2.507004   4.029421
    21  H    5.490064   4.493265   4.600964   3.331375   3.165412
    22  C    3.124991   1.415597   3.185776   3.428259   4.360038
    23  C    4.443866   2.459022   4.580827   4.409403   5.554256
    24  C    5.338482   3.755825   5.571434   5.637962   6.797285
    25  N    5.693336   4.442164   6.416954   6.614522   7.594095
    26  O    5.260525   4.079804   6.338446   6.468916   7.264591
    27  C    4.740661   3.072767   5.511060   5.343452   6.219312
    28  N    4.011434   2.737836   5.187325   5.090935   5.601035
    29  H    2.640528   1.957329   3.416580   4.118380   4.694314
    30  H    3.505897   1.943974   2.777327   3.038733   4.179657
    31  H    5.090719   2.785101   4.755673   4.182209   5.566353
    32  H    5.896781   4.364846   5.798505   5.902859   7.172196
    33  H    5.716949   3.842639   6.297355   5.858974   6.857540
    34  H    4.714505   3.710864   6.115606   6.012436   6.407203
    35  H    3.172803   2.474598   4.712621   4.957178   5.251523
                   16         17         18         19         20
    16  H    0.000000
    17  H    1.782328   0.000000
    18  H    4.114351   3.604704   0.000000
    19  H    3.617807   2.408614   1.806067   0.000000
    20  H    3.894689   3.333807   1.784068   1.790087   0.000000
    21  H    2.127329   3.390077   3.597931   4.095624   3.926217
    22  C    4.647889   3.718393   4.594852   3.386687   2.995769
    23  C    5.316458   4.005481   4.295116   2.945106   3.012550
    24  C    6.776843   5.451224   5.624999   4.371632   4.342747
    25  N    7.298669   5.821261   6.465377   5.006363   5.329744
    26  O    6.528473   4.922554   6.086469   4.424394   5.152965
    27  C    5.316484   3.686287   4.671515   2.979956   3.840921
    28  N    4.301570   2.618210   4.677590   2.879672   3.990120
    29  H    5.017514   4.106677   5.595940   4.253254   4.045491
    30  H    5.046078   4.417343   4.719215   3.889103   2.960623
    31  H    5.313212   4.093360   3.461143   2.425990   2.296389
    32  H    7.492503   6.306014   6.108688   5.093720   4.734488
    33  H    5.714989   4.022955   4.411777   2.832435   3.958609
    34  H    4.793357   3.072069   5.289082   3.502737   4.850727
    35  H    4.243296   2.796292   5.281410   3.552934   4.347715
                   21         22         23         24         25
    21  H    0.000000
    22  C    5.794530   0.000000
    23  C    6.334865   1.513761   0.000000
    24  C    7.822970   2.475895   1.512408   0.000000
    25  N    8.564915   3.274003   2.338392   1.272965   0.000000
    26  O    7.955427   3.270470   2.350045   2.161718   1.370826
    27  C    6.596525   2.582909   1.539944   2.306971   2.304685
    28  N    5.864892   2.869225   2.504047   3.544057   3.490260
    29  H    6.438437   1.099641   2.203662   2.738823   3.197712
    30  H    5.893285   1.097344   2.200727   2.894679   3.917815
    31  H    5.974346   2.156814   1.097410   2.172849   3.146942
    32  H    8.383356   3.001282   2.329022   1.090864   2.045638
    33  H    6.776063   3.461359   2.176902   2.835079   2.825756
    34  H    6.413461   3.865959   3.382375   4.238137   3.927462
    35  H    6.006382   2.616062   2.739733   3.661749   3.582455
                   26         27         28         29         30
    26  O    0.000000
    27  C    1.446968   0.000000
    28  N    2.378165   1.420784   0.000000
    29  H    3.152217   2.869775   2.975484   0.000000
    30  H    4.192491   3.548688   3.932916   1.813883   0.000000
    31  H    3.210839   2.184351   3.096793   3.102286   2.488017
    32  H    3.190755   3.374876   4.589902   3.288620   3.035563
    33  H    2.056266   1.103384   2.060084   3.915424   4.311243
    34  H    2.622939   2.016390   1.017854   3.866918   4.939737
    35  H    2.583915   2.014436   1.019489   2.384341   3.692964
                   31         32         33         34         35
    31  H    0.000000
    32  H    2.708112   0.000000
    33  H    2.339929   3.818410   0.000000
    34  H    3.938217   5.320883   2.329531   0.000000
    35  H    3.536046   4.648472   2.919506   1.643594   0.000000
 Symmetry turned off by external request.
 Stoichiometry    C10H20N3O2(2)
 Framework group  C1[X(C10H20N3O2)]
 Deg. of freedom    99
 Full point group                 C1      NOp   1
 Rotational constants (GHZ):           0.9512214           0.3072413           0.2791408
 Standard basis: def2TZVP (5D, 7F)
   585 basis functions,   925 primitive gaussians,   660 cartesian basis functions
    59 alpha electrons       58 beta electrons
       nuclear repulsion energy      1078.4677875668 Hartrees.
 NAtoms=   35 NActive=   35 NUniq=   35 SFac= 1.00D+00 NAtFMM=   60 NAOKFM=F Big=F
 Integral buffers will be    131072 words long.
 Raffenetti 2 integral format.
 Two-electron integral symmetry is turned off.
 One-electron integrals computed using PRISM.
   1 Symmetry operations used in ECPInt.
 ECPInt:  NShTT=   30135 NPrTT=   88800 LenC2=   27853 LenP2D=   60993.
 LDataN:  DoStor=T MaxTD1= 6 Len=  172
 NBasis=   585 RedAO= T EigKep=  5.85D-05  NBF=   585
 NBsUse=   585 1.00D-06 EigRej= -1.00D+00 NBFU=   585
 ExpMin= 9.52D-02 ExpMax= 2.70D+04 ExpMxC= 9.22D+02 IAcc=3 IRadAn=         5 AccDes= 0.00D+00
 Harris functional with IExCor= 1009 and IRadAn=       5 diagonalized for initial guess.
 HarFok:  IExCor= 1009 AccDes= 0.00D+00 IRadAn=         5 IDoV= 1 UseB2=F ITyADJ=14
 ICtDFT=  3500011 ScaDFX=  1.000000  1.000000  1.000000  1.000000
 FoFCou: FMM=F IPFlag=           0 FMFlag=      100000 FMFlg1=           0
         NFxFlg=           0 DoJE=T BraDBF=F KetDBF=T FulRan=T
         wScrn=  0.000000 ICntrl=       500 IOpCl=  0 I1Cent=   200000004 NGrid=           0
         NMat0=    1 NMatS0=      1 NMatT0=    0 NMatD0=    1 NMtDS0=    0 NMtDT0=    0
 Symmetry not used in FoFCou.
 Initial guess <Sx>= 0.0000 <Sy>= 0.0000 <Sz>= 0.5000 <S**2>= 0.7500 S= 0.5000
 Requested convergence on RMS density matrix=1.00D-08 within 128 cycles.
 Requested convergence on MAX density matrix=1.00D-06.
 Requested convergence on             energy=1.00D-06.
 No special actions if energy rises.
 Integral accuracy reduced to 1.0D-05 until final iterations.
 Initial convergence to 1.0D-05 achieved.  Increase integral accuracy.
 SCF Done:  E(UM062X) =  -707.626953763     A.U. after   19 cycles
            NFock= 19  Conv=0.35D-08     -V/T= 2.0051
 <Sx>= 0.0000 <Sy>= 0.0000 <Sz>= 0.5000 <S**2>= 0.7593 S= 0.5046
 <L.S>=  0.00000000000    
 Annihilation of the first spin contaminant:
 S**2 before annihilation     0.7593,   after     0.7500

 **********************************************************************

            Population analysis using the SCF Density.

 **********************************************************************

 Alpha  occ. eigenvalues --  -19.66973 -19.59297 -14.81018 -14.78027 -14.75937
 Alpha  occ. eigenvalues --  -10.63538 -10.63515 -10.58356 -10.58311 -10.57439
 Alpha  occ. eigenvalues --  -10.57140 -10.56428 -10.56305 -10.54757 -10.54179
 Alpha  occ. eigenvalues --   -1.24069  -1.16341  -1.05727  -1.03317  -0.96749
 Alpha  occ. eigenvalues --   -0.92360  -0.89549  -0.82293  -0.79741  -0.79149
 Alpha  occ. eigenvalues --   -0.79023  -0.69354  -0.68571  -0.66338  -0.64614
 Alpha  occ. eigenvalues --   -0.62995  -0.60104  -0.59418  -0.57195  -0.56030
 Alpha  occ. eigenvalues --   -0.54970  -0.54302  -0.53393  -0.50701  -0.50175
 Alpha  occ. eigenvalues --   -0.49349  -0.47957  -0.47463  -0.47018  -0.46091
 Alpha  occ. eigenvalues --   -0.45906  -0.45779  -0.45551  -0.45040  -0.43027
 Alpha  occ. eigenvalues --   -0.42466  -0.41855  -0.41710  -0.39414  -0.34545
 Alpha  occ. eigenvalues --   -0.33619  -0.31951  -0.30607  -0.24163
 Alpha virt. eigenvalues --    0.02648   0.04179   0.05362   0.05772   0.07217
 Alpha virt. eigenvalues --    0.08096   0.09279   0.09599   0.09894   0.10399
 Alpha virt. eigenvalues --    0.11733   0.12009   0.12530   0.13368   0.13539
 Alpha virt. eigenvalues --    0.14235   0.14501   0.15728   0.15879   0.16049
 Alpha virt. eigenvalues --    0.16466   0.17132   0.17797   0.17993   0.18713
 Alpha virt. eigenvalues --    0.19738   0.19887   0.21166   0.21588   0.22819
 Alpha virt. eigenvalues --    0.23451   0.23609   0.24770   0.25305   0.25472
 Alpha virt. eigenvalues --    0.26635   0.27463   0.27805   0.28835   0.29122
 Alpha virt. eigenvalues --    0.29415   0.31383   0.32200   0.32755   0.33323
 Alpha virt. eigenvalues --    0.34300   0.34508   0.35491   0.36235   0.37101
 Alpha virt. eigenvalues --    0.37565   0.38157   0.38944   0.39696   0.39910
 Alpha virt. eigenvalues --    0.40287   0.40728   0.41161   0.41690   0.42487
 Alpha virt. eigenvalues --    0.43110   0.43457   0.44607   0.44672   0.44986
 Alpha virt. eigenvalues --    0.45929   0.46232   0.47162   0.47632   0.48150
 Alpha virt. eigenvalues --    0.48243   0.48540   0.49071   0.49480   0.50205
 Alpha virt. eigenvalues --    0.50834   0.51338   0.51625   0.52491   0.53004
 Alpha virt. eigenvalues --    0.53260   0.53673   0.54473   0.54751   0.55234
 Alpha virt. eigenvalues --    0.56385   0.56646   0.56974   0.58184   0.58479
 Alpha virt. eigenvalues --    0.59015   0.60155   0.60766   0.60796   0.62225
 Alpha virt. eigenvalues --    0.62521   0.63511   0.64405   0.65329   0.66107
 Alpha virt. eigenvalues --    0.67244   0.67985   0.68717   0.70334   0.71624
 Alpha virt. eigenvalues --    0.72191   0.74200   0.74870   0.75919   0.76903
 Alpha virt. eigenvalues --    0.77533   0.78675   0.80790   0.81188   0.82421
 Alpha virt. eigenvalues --    0.83223   0.85263   0.86264   0.86654   0.86710
 Alpha virt. eigenvalues --    0.88540   0.89323   0.90031   0.91037   0.92442
 Alpha virt. eigenvalues --    0.92749   0.94718   0.96648   0.97199   0.98050
 Alpha virt. eigenvalues --    0.98815   1.00644   1.01293   1.02312   1.03063
 Alpha virt. eigenvalues --    1.04365   1.05535   1.06534   1.07486   1.08620
 Alpha virt. eigenvalues --    1.09400   1.09850   1.10746   1.11325   1.12593
 Alpha virt. eigenvalues --    1.13155   1.14173   1.15649   1.17404   1.18065
 Alpha virt. eigenvalues --    1.18764   1.20329   1.21674   1.22803   1.23663
 Alpha virt. eigenvalues --    1.25299   1.26471   1.28055   1.29581   1.30192
 Alpha virt. eigenvalues --    1.32087   1.33757   1.34107   1.36071   1.36605
 Alpha virt. eigenvalues --    1.37249   1.39171   1.40464   1.42619   1.43175
 Alpha virt. eigenvalues --    1.43936   1.46259   1.48848   1.50128   1.50883
 Alpha virt. eigenvalues --    1.51347   1.52268   1.53170   1.53941   1.54679
 Alpha virt. eigenvalues --    1.54898   1.55725   1.56418   1.57014   1.58478
 Alpha virt. eigenvalues --    1.59367   1.60237   1.61260   1.61498   1.61748
 Alpha virt. eigenvalues --    1.62100   1.63535   1.64240   1.64746   1.65259
 Alpha virt. eigenvalues --    1.66162   1.66604   1.68009   1.68786   1.69802
 Alpha virt. eigenvalues --    1.71111   1.71206   1.71786   1.72704   1.74489
 Alpha virt. eigenvalues --    1.75544   1.76043   1.77156   1.79059   1.80279
 Alpha virt. eigenvalues --    1.81018   1.83271   1.84092   1.84907   1.86547
 Alpha virt. eigenvalues --    1.87320   1.88320   1.90734   1.92221   1.92663
 Alpha virt. eigenvalues --    1.93665   1.93676   1.94524   1.97437   1.97628
 Alpha virt. eigenvalues --    1.98897   1.99833   2.00487   2.01584   2.02350
 Alpha virt. eigenvalues --    2.03159   2.03760   2.05272   2.06728   2.07178
 Alpha virt. eigenvalues --    2.08366   2.08873   2.10147   2.11074   2.12311
 Alpha virt. eigenvalues --    2.13550   2.14224   2.14974   2.16617   2.17556
 Alpha virt. eigenvalues --    2.18146   2.19622   2.21181   2.23236   2.23308
 Alpha virt. eigenvalues --    2.25081   2.26138   2.27143   2.28066   2.29200
 Alpha virt. eigenvalues --    2.29820   2.32365   2.32991   2.33740   2.34413
 Alpha virt. eigenvalues --    2.35002   2.35236   2.36086   2.37846   2.39111
 Alpha virt. eigenvalues --    2.39824   2.40335   2.40655   2.42252   2.43078
 Alpha virt. eigenvalues --    2.44095   2.45731   2.47065   2.47266   2.47457
 Alpha virt. eigenvalues --    2.48988   2.50843   2.51474   2.52330   2.52612
 Alpha virt. eigenvalues --    2.53633   2.54753   2.55556   2.57331   2.58100
 Alpha virt. eigenvalues --    2.59394   2.60051   2.61603   2.61712   2.62144
 Alpha virt. eigenvalues --    2.62785   2.63630   2.64054   2.65985   2.66805
 Alpha virt. eigenvalues --    2.68434   2.68766   2.69704   2.71053   2.72155
 Alpha virt. eigenvalues --    2.73170   2.73834   2.75098   2.75811   2.77698
 Alpha virt. eigenvalues --    2.79707   2.81019   2.82109   2.82896   2.83214
 Alpha virt. eigenvalues --    2.84098   2.85417   2.86135   2.87505   2.88596
 Alpha virt. eigenvalues --    2.89087   2.91056   2.92094   2.92377   2.93371
 Alpha virt. eigenvalues --    2.93585   2.97315   2.97975   2.98371   3.00348
 Alpha virt. eigenvalues --    3.02409   3.04030   3.04670   3.06224   3.06631
 Alpha virt. eigenvalues --    3.06914   3.08095   3.08443   3.09684   3.10151
 Alpha virt. eigenvalues --    3.10979   3.12184   3.13170   3.14528   3.15128
 Alpha virt. eigenvalues --    3.16012   3.16511   3.17426   3.19539   3.20571
 Alpha virt. eigenvalues --    3.21472   3.21852   3.22561   3.23802   3.24096
 Alpha virt. eigenvalues --    3.24163   3.24944   3.26702   3.27536   3.28588
 Alpha virt. eigenvalues --    3.28683   3.30755   3.31281   3.32011   3.32751
 Alpha virt. eigenvalues --    3.32880   3.33364   3.34728   3.35995   3.37306
 Alpha virt. eigenvalues --    3.38389   3.38724   3.39406   3.41470   3.41805
 Alpha virt. eigenvalues --    3.42763   3.43089   3.44597   3.46008   3.47817
 Alpha virt. eigenvalues --    3.49140   3.49445   3.50749   3.52260   3.53853
 Alpha virt. eigenvalues --    3.54414   3.55216   3.56284   3.58705   3.59042
 Alpha virt. eigenvalues --    3.60595   3.61215   3.62272   3.62817   3.65028
 Alpha virt. eigenvalues --    3.66042   3.66400   3.67930   3.68935   3.70039
 Alpha virt. eigenvalues --    3.72343   3.72830   3.73392   3.76756   3.77774
 Alpha virt. eigenvalues --    3.79548   3.81582   3.83250   3.88380   3.90520
 Alpha virt. eigenvalues --    3.92361   3.93641   3.95503   3.96288   3.97374
 Alpha virt. eigenvalues --    3.98320   3.99688   4.00669   4.03048   4.04173
 Alpha virt. eigenvalues --    4.04804   4.05243   4.07250   4.08764   4.10323
 Alpha virt. eigenvalues --    4.12876   4.14019   4.16084   4.16793   4.18532
 Alpha virt. eigenvalues --    4.19610   4.21791   4.23390   4.26937   4.27928
 Alpha virt. eigenvalues --    4.30153   4.32541   4.35574   4.36195   4.37668
 Alpha virt. eigenvalues --    4.37986   4.39128   4.40866   4.41870   4.44972
 Alpha virt. eigenvalues --    4.45090   4.47332   4.51030   4.51863   4.56040
 Alpha virt. eigenvalues --    4.57351   4.61174   4.62404   4.65792   4.70604
 Alpha virt. eigenvalues --    4.72977   4.74998   4.76835   4.79021   4.80454
 Alpha virt. eigenvalues --    4.81203   4.83198   4.84010   4.86118   4.88093
 Alpha virt. eigenvalues --    4.89846   4.92139   4.92770   4.93770   4.97055
 Alpha virt. eigenvalues --    5.01315   5.06129   5.07584   5.09752   5.11603
 Alpha virt. eigenvalues --    5.18955   5.19229   5.20343   5.20610   5.21841
 Alpha virt. eigenvalues --    5.25520   5.27934   5.28360   5.29622   5.31110
 Alpha virt. eigenvalues --    5.33173   5.42253   5.43488   5.51366   5.52678
 Alpha virt. eigenvalues --    5.52838   5.58222   5.60431   5.66916   5.67169
 Alpha virt. eigenvalues --    5.74225   5.75272   5.77625   5.85192   5.94798
 Alpha virt. eigenvalues --    6.03959   6.12202   6.35529   6.38595   6.39247
 Alpha virt. eigenvalues --    6.48157   6.59801   6.69221   6.71399   6.81918
 Alpha virt. eigenvalues --    6.85701   6.94143   6.99277   7.08960   7.22902
 Alpha virt. eigenvalues --    7.63214  22.45478  22.49078  22.51332  22.55425
 Alpha virt. eigenvalues --   22.67918  22.74072  22.74216  22.77942  22.83506
 Alpha virt. eigenvalues --   23.19964  32.14494  32.21162  32.98239  43.98321
 Alpha virt. eigenvalues --   44.39329
  Beta  occ. eigenvalues --  -19.66963 -19.59298 -14.80973 -14.78024 -14.75938
  Beta  occ. eigenvalues --  -10.63537 -10.63504 -10.58374 -10.58270 -10.57464
  Beta  occ. eigenvalues --  -10.57140 -10.55918 -10.55726 -10.54784 -10.54202
  Beta  occ. eigenvalues --   -1.23994  -1.16340  -1.05676  -1.03279  -0.96554
  Beta  occ. eigenvalues --   -0.91473  -0.89013  -0.82213  -0.79584  -0.78948
  Beta  occ. eigenvalues --   -0.77957  -0.68730  -0.68352  -0.65931  -0.63841
  Beta  occ. eigenvalues --   -0.62881  -0.59585  -0.59322  -0.56702  -0.55742
  Beta  occ. eigenvalues --   -0.54722  -0.53967  -0.52634  -0.50483  -0.49567
  Beta  occ. eigenvalues --   -0.49138  -0.47791  -0.47134  -0.46664  -0.45916
  Beta  occ. eigenvalues --   -0.45586  -0.45423  -0.45245  -0.44791  -0.42258
  Beta  occ. eigenvalues --   -0.42191  -0.41520  -0.40644  -0.38410  -0.34226
  Beta  occ. eigenvalues --   -0.33596  -0.31770  -0.30475
  Beta virt. eigenvalues --   -0.05513   0.03004   0.04466   0.05333   0.05736
  Beta virt. eigenvalues --    0.07129   0.07891   0.09249   0.09563   0.09797
  Beta virt. eigenvalues --    0.10413   0.11664   0.11948   0.12356   0.13325
  Beta virt. eigenvalues --    0.13538   0.14205   0.14494   0.15662   0.15962
  Beta virt. eigenvalues --    0.16101   0.16404   0.17196   0.17733   0.18025
  Beta virt. eigenvalues --    0.18713   0.19790   0.19933   0.21067   0.21595
  Beta virt. eigenvalues --    0.22903   0.23499   0.23922   0.24927   0.25356
  Beta virt. eigenvalues --    0.25712   0.26750   0.27478   0.27910   0.28847
  Beta virt. eigenvalues --    0.29107   0.29496   0.31436   0.32226   0.32844
  Beta virt. eigenvalues --    0.33420   0.34460   0.34730   0.35664   0.36425
  Beta virt. eigenvalues --    0.37116   0.37529   0.38361   0.39245   0.39716
  Beta virt. eigenvalues --    0.40128   0.40475   0.41027   0.41302   0.41928
  Beta virt. eigenvalues --    0.42599   0.43272   0.43511   0.44596   0.44762
  Beta virt. eigenvalues --    0.45298   0.46188   0.46934   0.47120   0.47834
  Beta virt. eigenvalues --    0.48255   0.48315   0.48529   0.49197   0.49536
  Beta virt. eigenvalues --    0.50331   0.50954   0.51407   0.51643   0.52611
  Beta virt. eigenvalues --    0.53053   0.53471   0.53667   0.54597   0.54803
  Beta virt. eigenvalues --    0.55450   0.56639   0.56716   0.57178   0.58302
  Beta virt. eigenvalues --    0.58622   0.59068   0.60229   0.60782   0.60902
  Beta virt. eigenvalues --    0.62264   0.62632   0.63557   0.64408   0.65425
  Beta virt. eigenvalues --    0.66162   0.67325   0.67950   0.68769   0.70432
  Beta virt. eigenvalues --    0.71650   0.72225   0.74433   0.74917   0.76134
  Beta virt. eigenvalues --    0.77002   0.77634   0.78675   0.80846   0.81336
  Beta virt. eigenvalues --    0.82377   0.83402   0.85416   0.86429   0.86752
  Beta virt. eigenvalues --    0.86849   0.88703   0.89534   0.90179   0.91166
  Beta virt. eigenvalues --    0.92519   0.92908   0.94952   0.96662   0.97340
  Beta virt. eigenvalues --    0.98247   0.98975   1.00846   1.01401   1.02413
  Beta virt. eigenvalues --    1.03220   1.04432   1.05776   1.06904   1.07716
  Beta virt. eigenvalues --    1.08771   1.09626   1.09968   1.10829   1.11543
  Beta virt. eigenvalues --    1.12632   1.13386   1.14250   1.15798   1.17538
  Beta virt. eigenvalues --    1.18219   1.18812   1.20459   1.21952   1.22952
  Beta virt. eigenvalues --    1.24021   1.25497   1.26792   1.28250   1.29724
  Beta virt. eigenvalues --    1.30706   1.32408   1.34130   1.34479   1.36261
  Beta virt. eigenvalues --    1.37248   1.37499   1.39611   1.40904   1.42843
  Beta virt. eigenvalues --    1.43310   1.44244   1.46315   1.48931   1.50194
  Beta virt. eigenvalues --    1.50906   1.51699   1.52304   1.53290   1.54058
  Beta virt. eigenvalues --    1.54987   1.55291   1.55870   1.56466   1.57631
  Beta virt. eigenvalues --    1.58572   1.59482   1.60359   1.61347   1.61710
  Beta virt. eigenvalues --    1.61890   1.62454   1.63501   1.64334   1.64976
  Beta virt. eigenvalues --    1.65330   1.66254   1.66635   1.68237   1.68929
  Beta virt. eigenvalues --    1.70519   1.71284   1.71753   1.72433   1.72801
  Beta virt. eigenvalues --    1.74500   1.75620   1.76665   1.77245   1.79351
  Beta virt. eigenvalues --    1.80431   1.81470   1.83641   1.84374   1.85277
  Beta virt. eigenvalues --    1.86756   1.87808   1.88670   1.91016   1.92525
  Beta virt. eigenvalues --    1.92777   1.93879   1.94050   1.94775   1.97630
  Beta virt. eigenvalues --    1.97901   1.99180   2.00161   2.00712   2.01759
  Beta virt. eigenvalues --    2.02545   2.03360   2.04286   2.05546   2.06955
  Beta virt. eigenvalues --    2.07321   2.08496   2.09160   2.10480   2.11235
  Beta virt. eigenvalues --    2.12493   2.14030   2.14579   2.15332   2.16754
  Beta virt. eigenvalues --    2.17684   2.18263   2.19912   2.21316   2.23505
  Beta virt. eigenvalues --    2.23565   2.25283   2.26475   2.27222   2.28252
  Beta virt. eigenvalues --    2.29316   2.30075   2.32567   2.33449   2.33966
  Beta virt. eigenvalues --    2.34564   2.35357   2.35556   2.36331   2.38142
  Beta virt. eigenvalues --    2.39363   2.39970   2.40484   2.40917   2.42395
  Beta virt. eigenvalues --    2.43287   2.44457   2.46079   2.47220   2.47431
  Beta virt. eigenvalues --    2.47728   2.49220   2.51136   2.51777   2.52527
  Beta virt. eigenvalues --    2.52855   2.53909   2.55093   2.55825   2.57576
  Beta virt. eigenvalues --    2.58352   2.59769   2.60253   2.61748   2.61977
  Beta virt. eigenvalues --    2.62447   2.63055   2.64036   2.64266   2.66240
  Beta virt. eigenvalues --    2.66988   2.68700   2.69011   2.69901   2.71444
  Beta virt. eigenvalues --    2.72303   2.73372   2.74183   2.75234   2.76145
  Beta virt. eigenvalues --    2.78167   2.80189   2.81676   2.82538   2.83289
  Beta virt. eigenvalues --    2.83548   2.84459   2.85892   2.86805   2.88226
  Beta virt. eigenvalues --    2.88802   2.89338   2.91526   2.92420   2.92855
  Beta virt. eigenvalues --    2.93701   2.93984   2.97468   2.98218   2.99503
  Beta virt. eigenvalues --    3.00464   3.02221   3.04647   3.04973   3.06582
  Beta virt. eigenvalues --    3.06951   3.07385   3.08411   3.09070   3.09903
  Beta virt. eigenvalues --    3.10664   3.11301   3.12804   3.13640   3.15027
  Beta virt. eigenvalues --    3.15717   3.16622   3.17018   3.17954   3.20117
  Beta virt. eigenvalues --    3.21315   3.22214   3.22604   3.23669   3.24001
  Beta virt. eigenvalues --    3.24496   3.24666   3.25596   3.27253   3.28323
  Beta virt. eigenvalues --    3.28859   3.29499   3.31058   3.31487   3.32310
  Beta virt. eigenvalues --    3.32889   3.33114   3.33984   3.35086   3.36716
  Beta virt. eigenvalues --    3.37901   3.39180   3.39635   3.39994   3.41682
  Beta virt. eigenvalues --    3.42301   3.43364   3.43953   3.45241   3.46501
  Beta virt. eigenvalues --    3.48349   3.49516   3.49912   3.51162   3.52905
  Beta virt. eigenvalues --    3.54560   3.54728   3.56489   3.56928   3.59663
  Beta virt. eigenvalues --    3.60230   3.61162   3.62080   3.63653   3.64325
  Beta virt. eigenvalues --    3.65327   3.66844   3.67192   3.68231   3.69393
  Beta virt. eigenvalues --    3.70577   3.73475   3.73590   3.73875   3.76935
  Beta virt. eigenvalues --    3.78353   3.80210   3.81846   3.84771   3.88823
  Beta virt. eigenvalues --    3.90926   3.93409   3.94304   3.96105   3.97119
  Beta virt. eigenvalues --    3.97945   3.99226   4.00394   4.01526   4.03708
  Beta virt. eigenvalues --    4.05112   4.05709   4.06006   4.08259   4.09180
  Beta virt. eigenvalues --    4.11149   4.13642   4.14462   4.16768   4.17558
  Beta virt. eigenvalues --    4.19313   4.20085   4.22441   4.24268   4.27264
  Beta virt. eigenvalues --    4.28387   4.30864   4.32849   4.35771   4.36557
  Beta virt. eigenvalues --    4.37968   4.38618   4.39432   4.41315   4.42363
  Beta virt. eigenvalues --    4.45494   4.45827   4.48060   4.51914   4.53033
  Beta virt. eigenvalues --    4.56480   4.58129   4.61896   4.64525   4.66138
  Beta virt. eigenvalues --    4.71664   4.74036   4.75480   4.77348   4.80449
  Beta virt. eigenvalues --    4.81862   4.83935   4.84723   4.85453   4.87606
  Beta virt. eigenvalues --    4.88559   4.89944   4.92671   4.94069   4.95152
  Beta virt. eigenvalues --    4.97482   5.01758   5.06354   5.07631   5.10113
  Beta virt. eigenvalues --    5.11747   5.19100   5.19283   5.20446   5.20721
  Beta virt. eigenvalues --    5.21922   5.25671   5.27962   5.28503   5.29783
  Beta virt. eigenvalues --    5.31248   5.33574   5.42348   5.43548   5.51397
  Beta virt. eigenvalues --    5.52700   5.52864   5.58263   5.60457   5.66920
  Beta virt. eigenvalues --    5.67314   5.74274   5.75297   5.77658   5.85213
  Beta virt. eigenvalues --    5.94832   6.03991   6.12200   6.35522   6.38586
  Beta virt. eigenvalues --    6.39247   6.48151   6.59804   6.69248   6.71412
  Beta virt. eigenvalues --    6.81909   6.85723   6.94144   6.99279   7.08956
  Beta virt. eigenvalues --    7.22890   7.63224  22.46163  22.49390  22.51376
  Beta virt. eigenvalues --   22.55445  22.67938  22.74119  22.74253  22.78801
  Beta virt. eigenvalues --   22.83703  23.19969  32.14508  32.21167  32.98241
  Beta virt. eigenvalues --   43.98321  44.39329
          Condensed to atoms (all electrons):
               1          2          3          4          5          6
     1  C    5.169873   0.226830  -0.072506  -0.064191   0.008994  -0.000574
     2  C    0.226830   6.487001   0.088852  -0.129339  -0.135868   0.050780
     3  C   -0.072506   0.088852   5.291176  -0.063957   0.057757  -0.009451
     4  C   -0.064191  -0.129339  -0.063957   5.607267   0.223010  -0.073734
     5  N    0.008994  -0.135868   0.057757   0.223010   6.922384   0.183925
     6  C   -0.000574   0.050780  -0.009451  -0.073734   0.183925   5.065209
     7  C   -0.000546  -0.004314  -0.005804  -0.032269   0.284650  -0.042898
     8  O   -0.000001   0.001506  -0.002180   0.001710  -0.131715  -0.000969
     9  H    0.412279  -0.031502   0.015965  -0.020238   0.000341   0.000203
    10  H    0.402728  -0.029883  -0.011333  -0.013209   0.000085  -0.000040
    11  H    0.430005  -0.054275  -0.014960   0.016291  -0.000594  -0.000047
    12  H   -0.055017  -0.045528  -0.053011   0.000364   0.011322  -0.020514
    13  H   -0.011803  -0.031177   0.406035   0.013370   0.000230  -0.000394
    14  H    0.011276  -0.031200   0.417925  -0.019220  -0.001570  -0.001178
    15  H   -0.008282  -0.053362   0.411164   0.000146  -0.003131   0.000500
    16  H   -0.000398  -0.058250  -0.011369   0.424265  -0.035293   0.006477
    17  H   -0.002276  -0.082117   0.017594   0.435549  -0.032486  -0.005173
    18  H    0.000052  -0.003383   0.000828   0.009293  -0.029072   0.405888
    19  H   -0.000168  -0.030890   0.002674   0.016901  -0.040915   0.394740
    20  H    0.000270   0.050227  -0.009410  -0.031986  -0.056392   0.431532
    21  H    0.000274  -0.010031  -0.000661   0.016097  -0.135765   0.010615
    22  C    0.025745  -0.296315   0.035187   0.017896   0.001147   0.000181
    23  C   -0.000857   0.013588  -0.002225   0.002340  -0.001483   0.001493
    24  C    0.000256  -0.002359  -0.000021  -0.000041  -0.000071   0.001341
    25  N    0.000036  -0.000047  -0.000001   0.000060  -0.000000  -0.000036
    26  O   -0.000211   0.000608   0.000018  -0.000378   0.000005   0.000036
    27  C   -0.001455   0.003773   0.000114   0.002253  -0.000139   0.002159
    28  N   -0.011235   0.039762   0.002003  -0.067452   0.004250  -0.005518
    29  H   -0.002701   0.018847  -0.000493  -0.000130  -0.000093   0.000124
    30  H    0.000595   0.006132  -0.004506   0.000508  -0.000206  -0.000374
    31  H   -0.000157   0.007109  -0.000125  -0.001432  -0.000040  -0.004626
    32  H   -0.000004   0.000183  -0.000017  -0.000004  -0.000002   0.000031
    33  H   -0.000113   0.000463   0.000012  -0.000288   0.000001   0.000967
    34  H    0.000852  -0.002588  -0.000064   0.002827  -0.000083  -0.000234
    35  H   -0.000868   0.006817   0.000214  -0.000387  -0.000057   0.000641
               7          8          9         10         11         12
     1  C   -0.000546  -0.000001   0.412279   0.402728   0.430005  -0.055017
     2  C   -0.004314   0.001506  -0.031502  -0.029883  -0.054275  -0.045528
     3  C   -0.005804  -0.002180   0.015965  -0.011333  -0.014960  -0.053011
     4  C   -0.032269   0.001710  -0.020238  -0.013209   0.016291   0.000364
     5  N    0.284650  -0.131715   0.000341   0.000085  -0.000594   0.011322
     6  C   -0.042898  -0.000969   0.000203  -0.000040  -0.000047  -0.020514
     7  C    4.563216   0.646047  -0.000017   0.000022  -0.000001  -0.000289
     8  O    0.646047   7.889614  -0.000000   0.000000  -0.000000   0.000033
     9  H   -0.000017  -0.000000   0.534681  -0.023807  -0.026954  -0.014835
    10  H    0.000022   0.000000  -0.023807   0.515506  -0.022135   0.013980
    11  H   -0.000001  -0.000000  -0.026954  -0.022135   0.511188  -0.006827
    12  H   -0.000289   0.000033  -0.014835   0.013980  -0.006827   1.294890
    13  H    0.000134  -0.000008  -0.000103  -0.000509   0.003556  -0.007002
    14  H   -0.002442   0.000892  -0.000381  -0.000314   0.000142  -0.007907
    15  H   -0.001057   0.000075  -0.000324   0.005662  -0.000394   0.013846
    16  H   -0.013722   0.000318  -0.001275   0.006231  -0.000407   0.010706
    17  H    0.001824  -0.000056   0.006451  -0.000402  -0.000650  -0.008640
    18  H   -0.013512   0.016930   0.000003   0.000000  -0.000003   0.000310
    19  H    0.007887   0.002062   0.000029  -0.000001  -0.000004   0.011785
    20  H   -0.001265   0.000225  -0.000054  -0.000025   0.000060  -0.028926
    21  H    0.447392  -0.054049   0.000016   0.000021  -0.000013   0.000191
    22  C   -0.000276  -0.000011   0.003472  -0.003748   0.003129  -0.031462
    23  C    0.000258   0.000017   0.000676   0.000056  -0.000038  -0.002555
    24  C    0.000010   0.000000   0.000038  -0.000003   0.000045   0.006218
    25  N   -0.000000  -0.000000  -0.000009  -0.000000  -0.000004  -0.000961
    26  O   -0.000000   0.000000   0.000044  -0.000001   0.000000  -0.000216
    27  C   -0.000133  -0.000006  -0.000798   0.000057  -0.000057   0.012509
    28  N   -0.000021   0.000001   0.000925   0.000041   0.000371  -0.004953
    29  H    0.000006   0.000000  -0.000467   0.000250  -0.001173  -0.052878
    30  H    0.000026   0.000002  -0.000167   0.000019   0.000411  -0.009762
    31  H    0.000069   0.000029   0.000009   0.000007  -0.000031  -0.015030
    32  H    0.000000   0.000000  -0.000001   0.000000  -0.000001  -0.000464
    33  H   -0.000005  -0.000000  -0.000037   0.000000  -0.000000   0.000115
    34  H    0.000001  -0.000000  -0.000079  -0.000008  -0.000011   0.001234
    35  H    0.000006   0.000000  -0.000173   0.000036  -0.000542  -0.015818
              13         14         15         16         17         18
     1  C   -0.011803   0.011276  -0.008282  -0.000398  -0.002276   0.000052
     2  C   -0.031177  -0.031200  -0.053362  -0.058250  -0.082117  -0.003383
     3  C    0.406035   0.417925   0.411164  -0.011369   0.017594   0.000828
     4  C    0.013370  -0.019220   0.000146   0.424265   0.435549   0.009293
     5  N    0.000230  -0.001570  -0.003131  -0.035293  -0.032486  -0.029072
     6  C   -0.000394  -0.001178   0.000500   0.006477  -0.005173   0.405888
     7  C    0.000134  -0.002442  -0.001057  -0.013722   0.001824  -0.013512
     8  O   -0.000008   0.000892   0.000075   0.000318  -0.000056   0.016930
     9  H   -0.000103  -0.000381  -0.000324  -0.001275   0.006451   0.000003
    10  H   -0.000509  -0.000314   0.005662   0.006231  -0.000402   0.000000
    11  H    0.003556   0.000142  -0.000394  -0.000407  -0.000650  -0.000003
    12  H   -0.007002  -0.007907   0.013846   0.010706  -0.008640   0.000310
    13  H    0.514114  -0.022122  -0.021962  -0.000469  -0.000278  -0.000003
    14  H   -0.022122   0.503750  -0.024206   0.000440  -0.000443  -0.000032
    15  H   -0.021962  -0.024206   0.518594   0.004447  -0.000338  -0.000006
    16  H   -0.000469   0.000440   0.004447   0.504411  -0.014877  -0.000193
    17  H   -0.000278  -0.000443  -0.000338  -0.014877   0.489220   0.000944
    18  H   -0.000003  -0.000032  -0.000006  -0.000193   0.000944   0.457893
    19  H    0.000001  -0.000103  -0.000038   0.000658   0.000307  -0.015158
    20  H   -0.000144   0.001865   0.000005  -0.000534  -0.001100  -0.022887
    21  H   -0.000115  -0.000164   0.000868   0.001202   0.001584   0.001955
    22  C    0.000942   0.002938  -0.003691  -0.003366   0.004727   0.000066
    23  C    0.000431  -0.000587   0.000061   0.000100  -0.002157   0.000168
    24  C    0.000021  -0.000011  -0.000002  -0.000005   0.000000  -0.000045
    25  N    0.000000   0.000000  -0.000000  -0.000000  -0.000016   0.000001
    26  O    0.000000  -0.000000  -0.000000   0.000000   0.000198   0.000001
    27  C   -0.000055   0.000026   0.000021   0.000071   0.000894  -0.000006
    28  N   -0.000011  -0.000006  -0.000027   0.000288   0.021680   0.000086
    29  H   -0.000092  -0.000057   0.000034   0.000033  -0.000042   0.000003
    30  H   -0.000512  -0.000431   0.000230   0.000014  -0.000142  -0.000035
    31  H   -0.000044  -0.000071   0.000010   0.000025   0.000054   0.000448
    32  H   -0.000000  -0.000001   0.000000   0.000000  -0.000002  -0.000000
    33  H    0.000001   0.000000  -0.000000   0.000002   0.000043  -0.000051
    34  H    0.000000   0.000001   0.000000  -0.000020  -0.001462  -0.000001
    35  H    0.000033  -0.000015  -0.000009  -0.000042  -0.001698  -0.000005
              19         20         21         22         23         24
     1  C   -0.000168   0.000270   0.000274   0.025745  -0.000857   0.000256
     2  C   -0.030890   0.050227  -0.010031  -0.296315   0.013588  -0.002359
     3  C    0.002674  -0.009410  -0.000661   0.035187  -0.002225  -0.000021
     4  C    0.016901  -0.031986   0.016097   0.017896   0.002340  -0.000041
     5  N   -0.040915  -0.056392  -0.135765   0.001147  -0.001483  -0.000071
     6  C    0.394740   0.431532   0.010615   0.000181   0.001493   0.001341
     7  C    0.007887  -0.001265   0.447392  -0.000276   0.000258   0.000010
     8  O    0.002062   0.000225  -0.054049  -0.000011   0.000017   0.000000
     9  H    0.000029  -0.000054   0.000016   0.003472   0.000676   0.000038
    10  H   -0.000001  -0.000025   0.000021  -0.003748   0.000056  -0.000003
    11  H   -0.000004   0.000060  -0.000013   0.003129  -0.000038   0.000045
    12  H    0.011785  -0.028926   0.000191  -0.031462  -0.002555   0.006218
    13  H    0.000001  -0.000144  -0.000115   0.000942   0.000431   0.000021
    14  H   -0.000103   0.001865  -0.000164   0.002938  -0.000587  -0.000011
    15  H   -0.000038   0.000005   0.000868  -0.003691   0.000061  -0.000002
    16  H    0.000658  -0.000534   0.001202  -0.003366   0.000100  -0.000005
    17  H    0.000307  -0.001100   0.001584   0.004727  -0.002157   0.000000
    18  H   -0.015158  -0.022887   0.001955   0.000066   0.000168  -0.000045
    19  H    0.540384  -0.048039   0.000529  -0.008888   0.007352   0.000438
    20  H   -0.048039   0.559835  -0.000656   0.009306  -0.003365   0.000930
    21  H    0.000529  -0.000656   0.629798  -0.000058   0.000010   0.000000
    22  C   -0.008888   0.009306  -0.000058   6.010566   0.028024  -0.065012
    23  C    0.007352  -0.003365   0.000010   0.028024   5.357039   0.342238
    24  C    0.000438   0.000930   0.000000  -0.065012   0.342238   5.036717
    25  N   -0.000031  -0.000023   0.000000  -0.000772  -0.062629   0.576570
    26  O    0.000018  -0.000002  -0.000000  -0.000475  -0.050409  -0.113382
    27  C   -0.000427  -0.001466  -0.000010   0.006850   0.219586  -0.057547
    28  N    0.000190   0.000608  -0.000000  -0.007792  -0.030228   0.007840
    29  H   -0.000017   0.000100   0.000001   0.429322  -0.043843  -0.006839
    30  H    0.000201   0.000077   0.000000   0.395980  -0.034134  -0.001416
    31  H   -0.004450   0.000962   0.000012  -0.049476   0.455397  -0.037769
    32  H   -0.000025   0.000030  -0.000000   0.003766  -0.052288   0.413284
    33  H   -0.001477  -0.000049  -0.000000   0.010381  -0.088403   0.008681
    34  H    0.000142   0.000004   0.000000  -0.004013   0.017806  -0.001049
    35  H   -0.000325  -0.000048   0.000001   0.018040  -0.027448  -0.001768
              25         26         27         28         29         30
     1  C    0.000036  -0.000211  -0.001455  -0.011235  -0.002701   0.000595
     2  C   -0.000047   0.000608   0.003773   0.039762   0.018847   0.006132
     3  C   -0.000001   0.000018   0.000114   0.002003  -0.000493  -0.004506
     4  C    0.000060  -0.000378   0.002253  -0.067452  -0.000130   0.000508
     5  N   -0.000000   0.000005  -0.000139   0.004250  -0.000093  -0.000206
     6  C   -0.000036   0.000036   0.002159  -0.005518   0.000124  -0.000374
     7  C   -0.000000  -0.000000  -0.000133  -0.000021   0.000006   0.000026
     8  O   -0.000000   0.000000  -0.000006   0.000001   0.000000   0.000002
     9  H   -0.000009   0.000044  -0.000798   0.000925  -0.000467  -0.000167
    10  H   -0.000000  -0.000001   0.000057   0.000041   0.000250   0.000019
    11  H   -0.000004   0.000000  -0.000057   0.000371  -0.001173   0.000411
    12  H   -0.000961  -0.000216   0.012509  -0.004953  -0.052878  -0.009762
    13  H    0.000000   0.000000  -0.000055  -0.000011  -0.000092  -0.000512
    14  H    0.000000  -0.000000   0.000026  -0.000006  -0.000057  -0.000431
    15  H   -0.000000  -0.000000   0.000021  -0.000027   0.000034   0.000230
    16  H   -0.000000   0.000000   0.000071   0.000288   0.000033   0.000014
    17  H   -0.000016   0.000198   0.000894   0.021680  -0.000042  -0.000142
    18  H    0.000001   0.000001  -0.000006   0.000086   0.000003  -0.000035
    19  H   -0.000031   0.000018  -0.000427   0.000190  -0.000017   0.000201
    20  H   -0.000023  -0.000002  -0.001466   0.000608   0.000100   0.000077
    21  H    0.000000  -0.000000  -0.000010  -0.000000   0.000001   0.000000
    22  C   -0.000772  -0.000475   0.006850  -0.007792   0.429322   0.395980
    23  C   -0.062629  -0.050409   0.219586  -0.030228  -0.043843  -0.034134
    24  C    0.576570  -0.113382  -0.057547   0.007840  -0.006839  -0.001416
    25  N    6.442513   0.127463  -0.044670   0.007285   0.001300   0.000071
    26  O    0.127463   8.094690   0.253863  -0.075353   0.003944  -0.000401
    27  C   -0.044670   0.253863   4.988136   0.220331   0.003604   0.004157
    28  N    0.007285  -0.075353   0.220331   6.773029  -0.005209   0.000838
    29  H    0.001300   0.003944   0.003604  -0.005209   0.443962  -0.008942
    30  H    0.000071  -0.000401   0.004157   0.000838  -0.008942   0.464613
    31  H    0.002761   0.005737  -0.059840   0.002865   0.004727  -0.001874
    32  H   -0.024135   0.005708   0.005244  -0.000117   0.000594   0.000235
    33  H    0.003812  -0.051334   0.486965  -0.065314   0.000151  -0.000404
    34  H   -0.000114  -0.002210  -0.047664   0.374953   0.000094   0.000019
    35  H    0.000967   0.001357  -0.006978   0.335755  -0.001461  -0.000159
              31         32         33         34         35
     1  C   -0.000157  -0.000004  -0.000113   0.000852  -0.000868
     2  C    0.007109   0.000183   0.000463  -0.002588   0.006817
     3  C   -0.000125  -0.000017   0.000012  -0.000064   0.000214
     4  C   -0.001432  -0.000004  -0.000288   0.002827  -0.000387
     5  N   -0.000040  -0.000002   0.000001  -0.000083  -0.000057
     6  C   -0.004626   0.000031   0.000967  -0.000234   0.000641
     7  C    0.000069   0.000000  -0.000005   0.000001   0.000006
     8  O    0.000029   0.000000  -0.000000  -0.000000   0.000000
     9  H    0.000009  -0.000001  -0.000037  -0.000079  -0.000173
    10  H    0.000007   0.000000   0.000000  -0.000008   0.000036
    11  H   -0.000031  -0.000001  -0.000000  -0.000011  -0.000542
    12  H   -0.015030  -0.000464   0.000115   0.001234  -0.015818
    13  H   -0.000044  -0.000000   0.000001   0.000000   0.000033
    14  H   -0.000071  -0.000001   0.000000   0.000001  -0.000015
    15  H    0.000010   0.000000  -0.000000   0.000000  -0.000009
    16  H    0.000025   0.000000   0.000002  -0.000020  -0.000042
    17  H    0.000054  -0.000002   0.000043  -0.001462  -0.001698
    18  H    0.000448  -0.000000  -0.000051  -0.000001  -0.000005
    19  H   -0.004450  -0.000025  -0.001477   0.000142  -0.000325
    20  H    0.000962   0.000030  -0.000049   0.000004  -0.000048
    21  H    0.000012  -0.000000  -0.000000   0.000000   0.000001
    22  C   -0.049476   0.003766   0.010381  -0.004013   0.018040
    23  C    0.455397  -0.052288  -0.088403   0.017806  -0.027448
    24  C   -0.037769   0.413284   0.008681  -0.001049  -0.001768
    25  N    0.002761  -0.024135   0.003812  -0.000114   0.000967
    26  O    0.005737   0.005708  -0.051334  -0.002210   0.001357
    27  C   -0.059840   0.005244   0.486965  -0.047664  -0.006978
    28  N    0.002865  -0.000117  -0.065314   0.374953   0.335755
    29  H    0.004727   0.000594   0.000151   0.000094  -0.001461
    30  H   -0.001874   0.000235  -0.000404   0.000019  -0.000159
    31  H    0.532457   0.001330  -0.007102  -0.000340   0.000136
    32  H    0.001330   0.483005  -0.000030   0.000018   0.000007
    33  H   -0.007102  -0.000030   0.558711  -0.008745   0.008630
    34  H   -0.000340   0.000018  -0.008745   0.450814  -0.028675
    35  H    0.000136   0.000007   0.008630  -0.028675   0.469621
          Atomic-Atomic Spin Densities.
               1          2          3          4          5          6
     1  C   -0.017464  -0.070091   0.012147   0.016895  -0.000185  -0.000245
     2  C   -0.070091   0.975775  -0.085010  -0.087163  -0.007788   0.006987
     3  C    0.012147  -0.085010  -0.006276   0.015353   0.001897  -0.001068
     4  C    0.016895  -0.087163   0.015353  -0.004819   0.006088  -0.002269
     5  N   -0.000185  -0.007788   0.001897   0.006088   0.003403  -0.000542
     6  C   -0.000245   0.006987  -0.001068  -0.002269  -0.000542   0.001483
     7  C    0.000020   0.000415   0.000208  -0.000347   0.000349  -0.000061
     8  O    0.000000  -0.000077   0.000029  -0.000005   0.000237  -0.000018
     9  H    0.003748  -0.007625   0.000285   0.002125   0.000045  -0.000022
    10  H    0.003547  -0.003576  -0.002436  -0.003984  -0.000132   0.000041
    11  H    0.004880  -0.010974   0.001466   0.001021   0.000016  -0.000018
    12  H    0.005914   0.116516   0.003009  -0.006622   0.000087   0.000156
    13  H    0.000960  -0.007978   0.004283   0.000573   0.000021  -0.000048
    14  H    0.000123  -0.009412   0.006179   0.001238   0.000439  -0.000301
    15  H   -0.001401  -0.003246   0.000203  -0.003106  -0.000393   0.000188
    16  H   -0.002545  -0.003429  -0.003873  -0.000309  -0.003367   0.000504
    17  H    0.001225  -0.010238   0.000733   0.006836   0.001328  -0.000200
    18  H    0.000001  -0.000120   0.000008   0.000145   0.000011  -0.000072
    19  H   -0.000007   0.000623  -0.000002  -0.001354   0.000447   0.000520
    20  H    0.000085  -0.004540   0.000988   0.000987   0.000214  -0.000893
    21  H   -0.000012  -0.000163  -0.000004   0.000644   0.000742   0.000054
    22  C    0.025939  -0.341844   0.034338   0.031133   0.001939  -0.005080
    23  C   -0.001311   0.021454  -0.001862  -0.002380  -0.000129   0.000217
    24  C    0.000174  -0.002757   0.000211   0.000177   0.000009  -0.000167
    25  N    0.000010  -0.000031   0.000000  -0.000001  -0.000000   0.000002
    26  O   -0.000009   0.000016  -0.000001  -0.000006   0.000000  -0.000003
    27  C   -0.000757   0.010370  -0.000477  -0.001652  -0.000049   0.000387
    28  N   -0.000050  -0.000571   0.000029  -0.001400   0.000197   0.000033
    29  H   -0.002026   0.011010  -0.001193  -0.000652  -0.000011   0.000047
    30  H   -0.000710   0.008692  -0.001699  -0.000498  -0.000051   0.000259
    31  H   -0.000119   0.003422  -0.000324  -0.000447  -0.000078   0.000692
    32  H   -0.000008   0.000147  -0.000014  -0.000007  -0.000000   0.000008
    33  H   -0.000011   0.000137  -0.000007  -0.000049   0.000006  -0.000085
    34  H   -0.000035   0.000090  -0.000001   0.000008  -0.000003   0.000008
    35  H    0.000160  -0.000474  -0.000026   0.000246  -0.000013  -0.000023
               7          8          9         10         11         12
     1  C    0.000020   0.000000   0.003748   0.003547   0.004880   0.005914
     2  C    0.000415  -0.000077  -0.007625  -0.003576  -0.010974   0.116516
     3  C    0.000208   0.000029   0.000285  -0.002436   0.001466   0.003009
     4  C   -0.000347  -0.000005   0.002125  -0.003984   0.001021  -0.006622
     5  N    0.000349   0.000237   0.000045  -0.000132   0.000016   0.000087
     6  C   -0.000061  -0.000018  -0.000022   0.000041  -0.000018   0.000156
     7  C    0.001509  -0.000477   0.000009  -0.000058   0.000003   0.000153
     8  O   -0.000477  -0.000195   0.000000   0.000000   0.000000   0.000006
     9  H    0.000009   0.000000   0.004584  -0.002760   0.000468   0.000337
    10  H   -0.000058   0.000000  -0.002760   0.031348  -0.003925  -0.000964
    11  H    0.000003   0.000000   0.000468  -0.003925   0.007077   0.000534
    12  H    0.000153   0.000006   0.000337  -0.000964   0.000534  -0.297531
    13  H    0.000006   0.000000   0.000055  -0.000636   0.000483   0.000232
    14  H   -0.000004   0.000010   0.000021  -0.000163   0.000069   0.001018
    15  H   -0.000363  -0.000000  -0.000179   0.003698  -0.000670  -0.000925
    16  H   -0.001778   0.000021  -0.000735   0.004429  -0.000327  -0.000258
    17  H    0.000286  -0.000001   0.000319  -0.000493   0.000090  -0.000084
    18  H   -0.000062   0.000060   0.000000  -0.000000   0.000000  -0.000041
    19  H    0.000073   0.000001  -0.000001  -0.000000   0.000000  -0.000340
    20  H   -0.000086   0.000033   0.000007  -0.000014   0.000009   0.000966
    21  H   -0.000109   0.000064  -0.000002   0.000022  -0.000001   0.000016
    22  C    0.000071   0.000009   0.003021  -0.003763   0.005896   0.027104
    23  C   -0.000008  -0.000001  -0.000176   0.000109  -0.000221   0.000545
    24  C   -0.000001   0.000000   0.000015  -0.000007   0.000035  -0.001851
    25  N    0.000000  -0.000000   0.000002  -0.000000   0.000003   0.000103
    26  O    0.000000   0.000000  -0.000003   0.000000  -0.000002   0.000210
    27  C    0.000001  -0.000000  -0.000137   0.000056  -0.000110  -0.000288
    28  N    0.000004   0.000000  -0.000170   0.000023  -0.000023   0.003354
    29  H   -0.000001  -0.000000  -0.000286   0.000229  -0.000718   0.009546
    30  H   -0.000005  -0.000000  -0.000033   0.000065  -0.000166   0.006517
    31  H    0.000002  -0.000001  -0.000012   0.000006  -0.000013   0.000502
    32  H    0.000000  -0.000000  -0.000001   0.000000  -0.000002   0.000062
    33  H    0.000000  -0.000000  -0.000004   0.000001  -0.000001   0.000285
    34  H    0.000000  -0.000000   0.000008   0.000001  -0.000000  -0.000058
    35  H   -0.000000   0.000000  -0.000098   0.000017  -0.000036   0.001563
              13         14         15         16         17         18
     1  C    0.000960   0.000123  -0.001401  -0.002545   0.001225   0.000001
     2  C   -0.007978  -0.009412  -0.003246  -0.003429  -0.010238  -0.000120
     3  C    0.004283   0.006179   0.000203  -0.003873   0.000733   0.000008
     4  C    0.000573   0.001238  -0.003106  -0.000309   0.006836   0.000145
     5  N    0.000021   0.000439  -0.000393  -0.003367   0.001328   0.000011
     6  C   -0.000048  -0.000301   0.000188   0.000504  -0.000200  -0.000072
     7  C    0.000006  -0.000004  -0.000363  -0.001778   0.000286  -0.000062
     8  O    0.000000   0.000010  -0.000000   0.000021  -0.000001   0.000060
     9  H    0.000055   0.000021  -0.000179  -0.000735   0.000319   0.000000
    10  H   -0.000636  -0.000163   0.003698   0.004429  -0.000493  -0.000000
    11  H    0.000483   0.000069  -0.000670  -0.000327   0.000090   0.000000
    12  H    0.000232   0.001018  -0.000925  -0.000258  -0.000084  -0.000041
    13  H    0.004595   0.000370  -0.003116  -0.000230   0.000027   0.000000
    14  H    0.000370   0.004731  -0.002872  -0.000432   0.000047   0.000011
    15  H   -0.003116  -0.002872   0.033620   0.004043  -0.000209  -0.000003
    16  H   -0.000230  -0.000432   0.004043   0.041807  -0.004652  -0.000017
    17  H    0.000027   0.000047  -0.000209  -0.004652   0.009236   0.000000
    18  H    0.000000   0.000011  -0.000003  -0.000017   0.000000  -0.000069
    19  H   -0.000000  -0.000002  -0.000001  -0.000066   0.000238   0.000049
    20  H    0.000042   0.000200  -0.000113  -0.000144   0.000092   0.000047
    21  H   -0.000005  -0.000010   0.000032  -0.000194  -0.000037  -0.000011
    22  C    0.003828   0.002793  -0.003583  -0.003150   0.003469   0.000019
    23  C   -0.000125  -0.000158   0.000100   0.000151  -0.000290   0.000031
    24  C    0.000020   0.000015  -0.000006  -0.000006   0.000025   0.000001
    25  N    0.000000  -0.000000  -0.000000   0.000000  -0.000000  -0.000000
    26  O   -0.000000  -0.000000   0.000000  -0.000000   0.000002   0.000000
    27  C   -0.000026  -0.000023   0.000021   0.000111  -0.000389  -0.000019
    28  N    0.000001  -0.000001  -0.000000  -0.000039   0.000537   0.000005
    29  H   -0.000177  -0.000043   0.000091   0.000054  -0.000076  -0.000000
    30  H   -0.000342  -0.000271   0.000166   0.000041  -0.000032   0.000004
    31  H   -0.000018  -0.000037   0.000014   0.000027  -0.000065  -0.000011
    32  H   -0.000002  -0.000001   0.000000   0.000000  -0.000001  -0.000000
    33  H   -0.000000  -0.000000   0.000000   0.000003  -0.000026  -0.000005
    34  H   -0.000000  -0.000000   0.000000   0.000004  -0.000028  -0.000000
    35  H    0.000000  -0.000001   0.000002   0.000010  -0.000107  -0.000000
[...]
   XX=              0.9040   YY=            -16.2476   ZZ=             15.3436
   XY=            -19.3702   XZ=              6.4309   YZ=             10.4748
 Octapole moment (field-independent basis, Debye-Ang**2):
  XXX=            -14.4795  YYY=             51.7029  ZZZ=              6.1551  XYY=             -8.6579
  XXY=            -43.0460  XXZ=             15.6296  XZZ=             -3.9327  YZZ=            -28.7347
  YYZ=             26.6000  XYZ=             16.1223
 Hexadecapole moment (field-independent basis, Debye-Ang**3):
 XXXX=          -1361.3748 YYYY=          -4054.1481 ZZZZ=           -649.5421 XXXY=           -531.8175
 XXXZ=            128.0923 YYYX=           -687.8657 YYYZ=            119.7941 ZZZX=            108.6311
 ZZZY=            -12.0005 XXYY=           -973.0339 XXZZ=           -342.1511 YYZZ=           -690.7897
 XXYZ=             55.1750 YYXZ=            127.8237 ZZXY=           -148.3424
 N-N= 1.078467787567D+03 E-N=-3.805039906191D+03  KE= 7.040257556359D+02
                          Isotropic Fermi Contact Couplings
        Atom                 a.u.       MegaHertz       Gauss      10(-4) cm-1
     1  C(13)             -0.01429     -16.06406      -5.73206      -5.35839
     2  C(13)              0.20631     231.92670      82.75721      77.36242
     3  C(13)             -0.01229     -13.81208      -4.92850      -4.60722
     4  C(13)             -0.00953     -10.71753      -3.82428      -3.57498
     5  N(14)              0.00191       0.61826       0.22061       0.20623
     6  C(13)              0.00009       0.10577       0.03774       0.03528
     7  C(13)              0.00063       0.71193       0.25403       0.23747
     8  O(17)             -0.00003       0.02111       0.00753       0.00704
     9  H(1)               0.00102       4.57899       1.63390       1.52739
    10  H(1)               0.00869      38.82759      13.85465      12.95149
    11  H(1)               0.00181       8.10542       2.89222       2.70368
    12  H(1)              -0.03469    -155.04798     -55.32497     -51.71844
    13  H(1)               0.00110       4.90696       1.75093       1.63679
    14  H(1)               0.00161       7.18498       2.56378       2.39665
    15  H(1)               0.00920      41.12929      14.67595      13.71926
    16  H(1)               0.01069      47.76518      17.04380      15.93275
    17  H(1)               0.00240      10.72897       3.82836       3.57880
    18  H(1)              -0.00005      -0.22382      -0.07986      -0.07466
    19  H(1)               0.00002       0.07194       0.02567       0.02400
    20  H(1)               0.00001       0.05676       0.02025       0.01893
    21  H(1)               0.00005       0.20742       0.07401       0.06919
    22  C(13)              0.24148     271.47017      96.86731      90.55270
    23  C(13)             -0.01286     -14.45588      -5.15822      -4.82196
    24  C(13)              0.03581      40.25236      14.36304      13.42674
    25  N(14)              0.00804       2.59640       0.92646       0.86607
    26  O(17)              0.00538      -3.26413      -1.16472      -1.08880
    27  C(13)              0.00418       4.69515       1.67535       1.56613
    28  N(14)             -0.00080      -0.25997      -0.09276      -0.08672
    29  H(1)              -0.00724     -32.35001     -11.54329     -10.79080
    30  H(1)              -0.00820     -36.63445     -13.07208     -12.21994
    31  H(1)               0.00167       7.48186       2.66971       2.49568
    32  H(1)              -0.00014      -0.60462      -0.21574      -0.20168
    33  H(1)              -0.00035      -1.54799      -0.55236      -0.51635
    34  H(1)              -0.00003      -0.15161      -0.05410      -0.05057
    35  H(1)              -0.00002      -0.10668      -0.03806      -0.03558
 --------------------------------------------------------
       Center         ----  Spin Dipole Couplings  ----
                      3XX-RR        3YY-RR        3ZZ-RR
 --------------------------------------------------------
     1   Atom        0.000330     -0.005021      0.004691
     2   Atom       -0.301703      0.444756     -0.143053
     3   Atom       -0.007337      0.009682     -0.002345
     4   Atom        0.012640     -0.003887     -0.008753
     5   Atom        0.003961     -0.003372     -0.000589
     6   Atom        0.005197     -0.002318     -0.002879
     7   Atom        0.001418      0.000168     -0.001585
     8   Atom       -0.000895      0.003007     -0.002112
     9   Atom       -0.005032     -0.003505      0.008537
    10   Atom       -0.000655     -0.001702      0.002357
    11   Atom        0.006297     -0.003459     -0.002838
    12   Atom       -0.096069      0.135810     -0.039741
    13   Atom       -0.001147      0.001449     -0.000302
    14   Atom       -0.007027      0.002359      0.004669
    15   Atom       -0.004887      0.007172     -0.002285
    16   Atom        0.001813     -0.000297     -0.001516
    17   Atom        0.004243     -0.004877      0.000634
    18   Atom        0.002529     -0.001286     -0.001242
    19   Atom        0.005837     -0.002231     -0.003606
    20   Atom        0.004006     -0.002831     -0.001175
    21   Atom        0.000574      0.000861     -0.001435
    22   Atom       -0.164982      0.248347     -0.083365
    23   Atom       -0.004562      0.016826     -0.012264
    24   Atom       -0.017616      0.030903     -0.013287
    25   Atom        0.066788     -0.046484     -0.020304
    26   Atom        0.017472     -0.004687     -0.012785
    27   Atom       -0.006333      0.005695      0.000638
    28   Atom       -0.000991     -0.001246      0.002237
    29   Atom        0.019868     -0.014568     -0.005300
    30   Atom       -0.030019     -0.005589      0.035608
    31   Atom        0.006620     -0.002427     -0.004193
    32   Atom       -0.003985      0.003167      0.000818
    33   Atom        0.001674      0.000595     -0.002269
    34   Atom       -0.001236     -0.000048      0.001284
    35   Atom       -0.006161     -0.000315      0.006475
 --------------------------------------------------------
                        XY            XZ            YZ
 --------------------------------------------------------
     1   Atom       -0.002548     -0.009910      0.004538
     2   Atom       -0.028819     -0.014004      0.346887
     3   Atom       -0.005696      0.003764     -0.009181
     4   Atom        0.012941      0.008405      0.004157
     5   Atom        0.004564     -0.002443     -0.001294
     6   Atom        0.000784     -0.002334      0.000189
     7   Atom        0.002237     -0.001477      0.000867
     8   Atom        0.001634     -0.003785      0.002415
     9   Atom        0.001751     -0.005254     -0.001297
    10   Atom       -0.002364     -0.005881      0.004075
    11   Atom       -0.000408     -0.007622      0.001755
    12   Atom        0.037154      0.019881      0.124359
    13   Atom       -0.005792      0.006349     -0.003784
    14   Atom        0.002042     -0.001377     -0.006934
    15   Atom       -0.002524      0.001600     -0.003580
    16   Atom        0.004116      0.004382      0.005082
    17   Atom       -0.001714      0.009158     -0.000025
    18   Atom        0.000623     -0.001285      0.000021
    19   Atom       -0.001008      0.000261      0.000686
    20   Atom        0.002291     -0.005545     -0.000040
    21   Atom        0.002619     -0.000501     -0.000089
    22   Atom        0.315966      0.202985      0.376746
    23   Atom       -0.011290     -0.001308      0.003280
    24   Atom        0.035569      0.005896      0.003360
    25   Atom       -0.003936     -0.052316     -0.000556
    26   Atom       -0.009052      0.002405     -0.002617
    27   Atom       -0.005916      0.004578     -0.012253
    28   Atom       -0.003633      0.003487     -0.003548
    29   Atom        0.027838     -0.030669      0.002787
    30   Atom        0.002853      0.027178     -0.016134
    31   Atom       -0.006494     -0.005386      0.003998
    32   Atom        0.000793      0.000945      0.004540
    33   Atom       -0.003111      0.001419     -0.001211
    34   Atom       -0.001261      0.001967     -0.001842
    35   Atom       -0.000732      0.001902     -0.005428
 --------------------------------------------------------


 ---------------------------------------------------------------------------------
              Anisotropic Spin Dipole Couplings in Principal Axis System
 ---------------------------------------------------------------------------------

       Atom             a.u.   MegaHertz   Gauss  10(-4) cm-1        Axes

              Baa    -0.0081    -1.081    -0.386    -0.361  0.6290 -0.4353  0.6441
     1 C(13)  Bbb    -0.0060    -0.804    -0.287    -0.268  0.4981  0.8618  0.0960
              Bcc     0.0140     1.884     0.672     0.629 -0.5969  0.2604  0.7589
 
              Baa    -0.3041   -40.805   -14.560   -13.611  0.4265 -0.3666  0.8269
     2 C(13)  Bbb    -0.3026   -40.600   -14.487   -13.543  0.9038  0.2084 -0.3738
              Bcc     0.6066    81.405    29.047    27.154 -0.0352  0.9067  0.4202
 
              Baa    -0.0094    -1.265    -0.452    -0.422  0.9282  0.1053 -0.3568
     3 C(13)  Bbb    -0.0071    -0.959    -0.342    -0.320  0.2519  0.5277  0.8112
              Bcc     0.0166     2.225     0.794     0.742 -0.2737  0.8429 -0.4634
 
              Baa    -0.0117    -1.576    -0.562    -0.526 -0.4368  0.2645  0.8598
     4 C(13)  Bbb    -0.0108    -1.448    -0.517    -0.483 -0.3174  0.8490 -0.4224
              Bcc     0.0225     3.024     1.079     1.009  0.8417  0.4574  0.2869
 
              Baa    -0.0056    -0.215    -0.077    -0.072 -0.4267  0.9040  0.0255
     5 N(14)  Bbb    -0.0016    -0.061    -0.022    -0.020  0.3149  0.1220  0.9413
              Bcc     0.0071     0.275     0.098     0.092  0.8478  0.4097 -0.3367
 
              Baa    -0.0036    -0.486    -0.174    -0.162  0.2689 -0.2943  0.9171
     6 C(13)  Bbb    -0.0023    -0.303    -0.108    -0.101 -0.0041  0.9518  0.3067
              Bcc     0.0059     0.790     0.282     0.263  0.9632  0.0862 -0.2547
 
              Baa    -0.0032    -0.426    -0.152    -0.142  0.4773 -0.5057  0.7187
     7 C(13)  Bbb    -0.0000    -0.005    -0.002    -0.002 -0.3239  0.6590  0.6788
              Bcc     0.0032     0.431     0.154     0.144  0.8169  0.5567 -0.1507
 
              Baa    -0.0062     0.452     0.161     0.151  0.6102 -0.2993  0.7335
     8 O(17)  Bbb     0.0023    -0.164    -0.059    -0.055  0.7907  0.1726 -0.5874
              Bcc     0.0040    -0.287    -0.103    -0.096  0.0492  0.9384  0.3419
 
              Baa    -0.0073    -3.872    -1.382    -1.292  0.9043 -0.3273  0.2740
     9 H(1)   Bbb    -0.0033    -1.764    -0.629    -0.588  0.2713  0.9363  0.2229
              Bcc     0.0106     5.636     2.011     1.880 -0.3295 -0.1273  0.9355
 
              Baa    -0.0054    -2.894    -1.033    -0.965  0.6759 -0.3053  0.6708
    10 H(1)   Bbb    -0.0035    -1.892    -0.675    -0.631  0.4935  0.8634 -0.1044
              Bcc     0.0090     4.786     1.708     1.596 -0.5473  0.4016  0.7343
 
              Baa    -0.0076    -4.050    -1.445    -1.351  0.4502 -0.3111  0.8370
    11 H(1)   Bbb    -0.0031    -1.671    -0.596    -0.557  0.2268  0.9465  0.2298
              Bcc     0.0107     5.721     2.041     1.908  0.8636 -0.0863 -0.4967
 
              Baa    -0.1043   -55.655   -19.859   -18.565 -0.2253 -0.4203  0.8789
    12 H(1)   Bbb    -0.1018   -54.324   -19.384   -18.120  0.9645 -0.2241  0.1401
              Bcc     0.2061   109.979    39.243    36.685  0.1381  0.8793  0.4559
 
              Baa    -0.0076    -4.039    -1.441    -1.347  0.7905  0.2789 -0.5453
    13 H(1)   Bbb    -0.0031    -1.637    -0.584    -0.546  0.1723  0.7531  0.6350
              Bcc     0.0106     5.675     2.025     1.893 -0.5877  0.5959 -0.5472
 
              Baa    -0.0075    -3.977    -1.419    -1.326  0.9777 -0.2099 -0.0090
    14 H(1)   Bbb    -0.0034    -1.817    -0.648    -0.606  0.1637  0.7344  0.6587
              Bcc     0.0109     5.793     2.067     1.932 -0.1316 -0.6454  0.7524
 
              Baa    -0.0057    -3.048    -1.088    -1.017  0.9345  0.0872 -0.3450
    15 H(1)   Bbb    -0.0033    -1.745    -0.623    -0.582  0.2907  0.3724  0.8814
              Bcc     0.0090     4.793     1.710     1.599 -0.2053  0.9240 -0.3227
 
              Baa    -0.0061    -3.250    -1.160    -1.084 -0.1222 -0.6039  0.7876
    16 H(1)   Bbb    -0.0030    -1.619    -0.578    -0.540  0.7633 -0.5643 -0.3143
              Bcc     0.0091     4.869     1.737     1.624  0.6343  0.5628  0.5300
 
              Baa    -0.0074    -3.933    -1.403    -1.312 -0.6019 -0.4067  0.6873
    17 H(1)   Bbb    -0.0045    -2.406    -0.858    -0.802 -0.2010  0.9101  0.3624
              Bcc     0.0119     6.339     2.262     2.114  0.7729 -0.0800  0.6295
 
              Baa    -0.0017    -0.932    -0.332    -0.311  0.3163 -0.4663  0.8262
    18 H(1)   Bbb    -0.0013    -0.672    -0.240    -0.224  0.0209  0.8741  0.4853
              Bcc     0.0030     1.604     0.572     0.535  0.9484  0.1362 -0.2862
 
              Baa    -0.0039    -2.097    -0.748    -0.700 -0.0664 -0.4068  0.9111
    19 H(1)   Bbb    -0.0020    -1.085    -0.387    -0.362  0.1023  0.9055  0.4118
              Bcc     0.0060     3.182     1.135     1.061  0.9925 -0.1205  0.0185
 
              Baa    -0.0053    -2.854    -1.018    -0.952  0.5321 -0.4729  0.7023
    20 H(1)   Bbb    -0.0025    -1.359    -0.485    -0.453  0.1158  0.8623  0.4930
              Bcc     0.0079     4.213     1.503     1.405  0.8387  0.1810 -0.5136
 
              Baa    -0.0021    -1.099    -0.392    -0.367  0.6703 -0.5872  0.4538
    21 H(1)   Bbb    -0.0013    -0.702    -0.251    -0.234 -0.2769  0.3695  0.8870
              Bcc     0.0034     1.801     0.643     0.601  0.6885  0.7202 -0.0851
 
              Baa    -0.3359   -45.077   -16.084   -15.036  0.8587 -0.5080  0.0676
    22 C(13)  Bbb    -0.3283   -44.054   -15.720   -14.695 -0.3040 -0.3987  0.8652
              Bcc     0.6642    89.131    31.804    29.731  0.4126  0.7635  0.4968
 
              Baa    -0.0126    -1.695    -0.605    -0.565  0.0135 -0.1056  0.9943
    23 C(13)  Bbb    -0.0094    -1.264    -0.451    -0.421  0.9195  0.3920  0.0291
              Bcc     0.0220     2.958     1.056     0.987 -0.3928  0.9139  0.1023
 
              Baa    -0.0370    -4.962    -1.771    -1.655  0.8783 -0.4525 -0.1544
    24 C(13)  Bbb    -0.0132    -1.776    -0.634    -0.592  0.0949 -0.1514  0.9839
              Bcc     0.0502     6.738     2.404     2.248  0.4686  0.8788  0.0900
 
              Baa    -0.0480    -1.853    -0.661    -0.618  0.2558  0.8279  0.4992
    25 N(14)  Bbb    -0.0434    -1.672    -0.597    -0.558  0.3389 -0.5604  0.7557
              Bcc     0.0914     3.525     1.258     1.176  0.9054 -0.0241 -0.4239
 
              Baa    -0.0136     0.981     0.350     0.327  0.0116  0.2937  0.9558
    26 O(17)  Bbb    -0.0074     0.538     0.192     0.179  0.3517  0.8936 -0.2788
              Bcc     0.0210    -1.519    -0.542    -0.507  0.9360 -0.3394  0.0929
 
              Baa    -0.0094    -1.260    -0.450    -0.420  0.2214  0.6658  0.7126
    27 C(13)  Bbb    -0.0086    -1.153    -0.411    -0.385  0.9298  0.0762 -0.3601
              Bcc     0.0180     2.413     0.861     0.805 -0.2940  0.7423 -0.6021
 
              Baa    -0.0048    -0.184    -0.065    -0.061  0.6761  0.7359  0.0362
    28 N(14)  Bbb    -0.0026    -0.100    -0.036    -0.033 -0.5313  0.4528  0.7160
              Bcc     0.0074     0.284     0.101     0.095  0.5105 -0.5033  0.6971
 
              Baa    -0.0411   -21.933    -7.826    -7.316 -0.5579  0.6406 -0.5277
    29 H(1)   Bbb    -0.0073    -3.873    -1.382    -1.292  0.1083  0.6866  0.7190
              Bcc     0.0484    25.806     9.208     8.608  0.8228  0.3439 -0.4524
 
              Baa    -0.0418   -22.289    -7.953    -7.435  0.9011 -0.2339 -0.3652
    30 H(1)   Bbb    -0.0074    -3.931    -1.403    -1.311  0.3075  0.9384  0.1578
              Bcc     0.0491    26.220     9.356     8.746  0.3058 -0.2545  0.9174
 
              Baa    -0.0074    -3.953    -1.410    -1.318  0.0248 -0.6060  0.7951
    31 H(1)   Bbb    -0.0052    -2.786    -0.994    -0.929  0.5796  0.6567  0.4824
              Bcc     0.0126     6.739     2.405     2.248  0.8145 -0.4489 -0.3675
 
              Baa    -0.0042    -2.223    -0.793    -0.741  0.9786  0.0208 -0.2046
    32 H(1)   Bbb    -0.0027    -1.415    -0.505    -0.472  0.1731 -0.6205  0.7649
              Bcc     0.0068     3.637     1.298     1.213  0.1110  0.7840  0.6108
 
              Baa    -0.0028    -1.474    -0.526    -0.492 -0.1849  0.1772  0.9666
    33 H(1)   Bbb    -0.0020    -1.079    -0.385    -0.360  0.6474  0.7620 -0.0158
              Bcc     0.0048     2.553     0.911     0.852  0.7394 -0.6229  0.2556
 
              Baa    -0.0024    -1.254    -0.448    -0.418  0.9003  0.1735 -0.3992
    34 H(1)   Bbb    -0.0013    -0.712    -0.254    -0.237  0.0753  0.8412  0.5354
              Bcc     0.0037     1.966     0.702     0.656  0.4287 -0.5121  0.7443
 
              Baa    -0.0064    -3.437    -1.226    -1.147  0.9881 -0.0173 -0.1527
    35 H(1)   Bbb    -0.0033    -1.759    -0.628    -0.587  0.0881  0.8780  0.4705
              Bcc     0.0097     5.196     1.854     1.733  0.1260 -0.4784  0.8691
 

 ---------------------------------------------------------------------------------

 Unable to Open any file for archive entry.
 1\1\GINC-R1I3N10\Stability\UM062X\def2TZVP\C10H20N3O2(2)\UZG38MN\11-Se
 p-2023\0\\# um062x Def2TZVP stable=opt Geom=ModRedun NoSymm\\TS_ts_gue
 ss_3iwCru_template_11-21_1-11_sp_g16\\0,2\C,0,-2.00293859,1.45497389,1
 .58520141\C,0,-0.97105559,1.58468789,0.48563441\C,0,-1.38025159,2.5190
 1789,-0.63130559\C,0,0.41647541,1.85849989,1.04721541\N,0,1.44422841,2
 .02467389,0.04586241\C,0,1.81171341,0.87941289,-0.75441559\C,0,1.98441
 341,3.23988589,-0.24205759\O,0,2.78843341,3.45475389,-1.11699459\H,0,-
 1.66650659,0.76647389,2.37579441\H,0,-2.18882259,2.43321289,2.06240641
 \H,0,-2.96531759,1.09323389,1.19337641\H,0,-0.97307559,0.39565589,-0.0
 7987759\H,0,-2.36998959,2.24928289,-1.02909559\H,0,-0.65810059,2.50272
 689,-1.46118159\H,0,-1.44193759,3.56004189,-0.26616159\H,0,0.37734141,
 2.78842789,1.64525241\H,0,0.69572241,1.03665289,1.72655941\H,0,2.79380
 241,1.06577989,-1.20449859\H,0,1.84220641,-0.01357211,-0.11301159\H,0,
 1.08497141,0.70399889,-1.56769259\H,0,1.60659441,4.03775689,0.43958141
 \C,0,-1.39431359,-0.77154811,-0.76113159\C,0,-0.33781559,-1.85213211,-
 0.84843559\C,0,-0.95177159,-3.12703011,-1.38235559\N,0,-1.12963059,-4.
 02411911,-0.49689659\O,0,-0.62656059,-3.59325211,0.70328541\C,0,0.1648
 7341,-2.39900211,0.50051341\N,0,0.06694641,-1.50166511,1.59770241\H,0,
 -2.28035559,-1.05791711,-0.17620959\H,0,-1.67796759,-0.34687211,-1.732
 39559\H,0,0.50276941,-1.51513411,-1.46824059\H,0,-1.32256959,-3.287703
 11,-2.39560659\H,0,1.21390841,-2.72681911,0.40295441\H,0,0.42176241,-1
 .93728711,2.44644641\H,0,-0.90792559,-1.25380211,1.76367341\\Version=E
 S64L-G16RevC.01\HF=-707.6269538\S2=0.759281\S2-1=0.\S2A=0.75005\RMSD=3
 .523e-09\Dipole=-0.9374709,0.1592953,0.6475788\Quadrupole=0.6720979,-1
 2.0797119,11.4076139,-14.4012844,4.7811964,7.7877298\PG=C01 [X(C10H20N
 3O2)]\\@
 The archive entry for this job was punched.


 THE WORLD IS MADE UP OF THE WILLS, THE WON'TS, AND THE CANT'S:
 THE WILLS DO EVERYTHING,
 THE WON'TS DO NOTHING,
 THE CAN'TS CAN'T DO ANYTHING.

                               -- FROM WALT DISNEY'S "BLACK HOLE"
 Job cpu time:       0 days  8 hours 49 minutes 53.6 seconds.
 Elapsed time:       0 days  0 hours 22 minutes 14.1 seconds.
 File lengths (MBytes):  RWF=   2512 Int=      0 D2E=      0 Chk=     80 Scr=     32
 Normal termination of Gaussian 16 at Mon Sep 11 12:58:33 2023.
